 Entering Gaussian System, Link 0=g16
 Input=C20_Ih_1.gjf
 Output=C20_Ih_1.log
 Initial command:
 /export/share/g16/l1.exe "/tmp/lmy/Gau-31676.inp" -scrdir="/tmp/lmy/"
 Entering Link 1 = /export/share/g16/l1.exe PID=     31677.
  
 Copyright (c) 1988,1990,1992,1993,1995,1998,2003,2009,2016,
            Gaussian, Inc.  All Rights Reserved.
  
 This is part of the Gaussian(R) 16 program.  It is based on
 the Gaussian(R) 09 system (copyright 2009, Gaussian, Inc.),
 the Gaussian(R) 03 system (copyright 2003, Gaussian, Inc.),
 the Gaussian(R) 98 system (copyright 1998, Gaussian, Inc.),
 the Gaussian(R) 94 system (copyright 1995, Gaussian, Inc.),
 the Gaussian 92(TM) system (copyright 1992, Gaussian, Inc.),
 the Gaussian 90(TM) system (copyright 1990, Gaussian, Inc.),
 the Gaussian 88(TM) system (copyright 1988, Gaussian, Inc.),
 the Gaussian 86(TM) system (copyright 1986, Carnegie Mellon
 University), and the Gaussian 82(TM) system (copyright 1983,
 Carnegie Mellon University). Gaussian is a federally registered
 trademark of Gaussian, Inc.
  
 This software contains proprietary and confidential information,
 including trade secrets, belonging to Gaussian, Inc.
  
 This software is provided under written license and may be
 used, copied, transmitted, or stored only in accord with that
 written license.
  
 The following legend is applicable only to US Government
 contracts under FAR:
  
                    RESTRICTED RIGHTS LEGEND
  
 Use, reproduction and disclosure by the US Government is
 subject to restrictions as set forth in subparagraphs (a)
 and (c) of the Commercial Computer Software - Restricted
 Rights clause in FAR 52.227-19.
  
 Gaussian, Inc.
 340 Quinnipiac St., Bldg. 40, Wallingford CT 06492
  
  
 ---------------------------------------------------------------
 Warning -- This program may not be used in any manner that
 competes with the business of Gaussian, Inc. or will provide
 assistance to any competitor of Gaussian, Inc.  The licensee
 of this program is prohibited from giving any competitor of
 Gaussian, Inc. access to this program.  By using this program,
 the user acknowledges that Gaussian, Inc. is engaged in the
 business of creating and licensing software in the field of
 computational chemistry and represents and warrants to the
 licensee that it is not a competitor of Gaussian, Inc. and that
 it will not use this program in any manner prohibited above.
 ---------------------------------------------------------------
  

 Cite this work as:
 Gaussian 16, Revision A.03,
 M. J. Frisch, G. W. Trucks, H. B. Schlegel, G. E. Scuseria, 
 M. A. Robb, J. R. Cheeseman, G. Scalmani, V. Barone, 
 G. A. Petersson, H. Nakatsuji, X. Li, M. Caricato, A. V. Marenich, 
 J. Bloino, B. G. Janesko, R. Gomperts, B. Mennucci, H. P. Hratchian, 
 J. V. Ortiz, A. F. Izmaylov, J. L. Sonnenberg, D. Williams-Young, 
 F. Ding, F. Lipparini, F. Egidi, J. Goings, B. Peng, A. Petrone, 
 T. Henderson, D. Ranasinghe, V. G. Zakrzewski, J. Gao, N. Rega, 
 G. Zheng, W. Liang, M. Hada, M. Ehara, K. Toyota, R. Fukuda, 
 J. Hasegawa, M. Ishida, T. Nakajima, Y. Honda, O. Kitao, H. Nakai, 
 T. Vreven, K. Throssell, J. A. Montgomery, Jr., J. E. Peralta, 
 F. Ogliaro, M. J. Bearpark, J. J. Heyd, E. N. Brothers, K. N. Kudin, 
 V. N. Staroverov, T. A. Keith, R. Kobayashi, J. Normand, 
 K. Raghavachari, A. P. Rendell, J. C. Burant, S. S. Iyengar, 
 J. Tomasi, M. Cossi, J. M. Millam, M. Klene, C. Adamo, R. Cammi, 
 J. W. Ochterski, R. L. Martin, K. Morokuma, O. Farkas, 
 J. B. Foresman, and D. J. Fox, Gaussian, Inc., Wallingford CT, 2016.
 
 ******************************************
 Gaussian 16:  ES64L-G16RevA.03 25-Dec-2016
                 5-May-2018 
 ******************************************
 %rwf=/tmp/lmy/C20_Ih_1.rwf
 %nosave
 %chk=C20_Ih_1.chk
 %mem=8GB
 %nprocshared=4
 Will use up to    4 processors via shared memory.
 ------------------------------------------------
 # opt b3lyp/6-31g nosymm empiricaldispersion=gd3
 ------------------------------------------------
 1/18=20,19=15,26=3,38=1/1,3;
 2/9=110,12=2,15=1,17=6,18=5,40=1/2;
 3/5=1,6=6,11=2,25=1,30=1,71=1,74=-5,124=31/1,2,3;
 4//1;
 5/5=2,38=5/2;
 6/7=2,8=2,9=2,10=2,28=1/1;
 7/30=1/1,2,3,16;
 1/18=20,19=15,26=3/3(2);
 2/9=110,15=1/2;
 99//99;
 2/9=110,15=1/2;
 3/5=1,6=6,11=2,25=1,30=1,71=1,74=-5,124=31/1,2,3;
 4/5=5,16=3,69=1/1;
 5/5=2,38=5/2;
 7/30=1/1,2,3,16;
 1/18=20,19=15,26=3/3(-5);
 2/9=110,15=1/2;
 6/7=2,8=2,9=2,10=2,19=2,28=1/1;
 99/9=1/99;
 ----------
 [No Title]
 ----------
 Symbolic Z-matrix:
 Charge =  0 Multiplicity = 1
 C                     1.123     1.596     0.195 
 C                     0.988     0.928     1.418 
 C                     1.463    -0.378     1.252 
 C                     0.391    -1.257     1.455 
 C                     0.157    -1.939     0.255 
 C                    -1.123    -1.596    -0.195 
 C                    -0.988    -0.928    -1.418 
 C                    -1.463     0.378    -1.252 
 C                    -0.391     1.257    -1.455 
 C                    -0.157     1.939    -0.255 
 C                     1.681     0.703    -0.727 
 C                     0.745     0.493    -1.747 
 C                     0.376    -0.858    -1.724 
 C                     1.084    -1.482    -0.69 
 C                     1.891    -0.518    -0.074 
 C                    -0.376     0.858     1.724 
 C                    -0.745    -0.493     1.747 
 C                    -1.681    -0.703     0.727 
 C                    -1.891     0.518     0.074 
 C                    -1.084     1.482     0.69 
 

 GradGradGradGradGradGradGradGradGradGradGradGradGradGradGradGradGradGrad
 Berny optimization.
 Initialization pass.
                           ----------------------------
                           !    Initial Parameters    !
                           ! (Angstroms and Degrees)  !
 --------------------------                            --------------------------
 ! Name  Definition              Value          Derivative Info.                !
 --------------------------------------------------------------------------------
 ! R1    R(1,2)                  1.4001         estimate D2E/DX2                !
 ! R2    R(1,10)                 1.3995         estimate D2E/DX2                !
 ! R3    R(1,11)                 1.3996         estimate D2E/DX2                !
 ! R4    R(2,3)                  1.3996         estimate D2E/DX2                !
 ! R5    R(2,16)                 1.3997         estimate D2E/DX2                !
 ! R6    R(3,4)                  1.4011         estimate D2E/DX2                !
 ! R7    R(3,15)                 1.4004         estimate D2E/DX2                !
 ! R8    R(4,5)                  1.4            estimate D2E/DX2                !
 ! R9    R(4,17)                 1.3998         estimate D2E/DX2                !
 ! R10   R(5,6)                  1.3995         estimate D2E/DX2                !
 ! R11   R(5,14)                 1.4004         estimate D2E/DX2                !
 ! R12   R(6,7)                  1.4001         estimate D2E/DX2                !
 ! R13   R(6,18)                 1.3996         estimate D2E/DX2                !
 ! R14   R(7,8)                  1.3996         estimate D2E/DX2                !
 ! R15   R(7,13)                 1.3997         estimate D2E/DX2                !
 ! R16   R(8,9)                  1.4011         estimate D2E/DX2                !
 ! R17   R(8,19)                 1.4004         estimate D2E/DX2                !
 ! R18   R(9,10)                 1.4            estimate D2E/DX2                !
 ! R19   R(9,12)                 1.3998         estimate D2E/DX2                !
 ! R20   R(10,20)                1.4004         estimate D2E/DX2                !
 ! R21   R(11,12)                1.4002         estimate D2E/DX2                !
 ! R22   R(11,15)                1.4005         estimate D2E/DX2                !
 ! R23   R(12,13)                1.4007         estimate D2E/DX2                !
 ! R24   R(13,14)                1.3999         estimate D2E/DX2                !
 ! R25   R(14,15)                1.4            estimate D2E/DX2                !
 ! R26   R(16,17)                1.4007         estimate D2E/DX2                !
 ! R27   R(16,20)                1.3999         estimate D2E/DX2                !
 ! R28   R(17,18)                1.4002         estimate D2E/DX2                !
 ! R29   R(18,19)                1.4005         estimate D2E/DX2                !
 ! R30   R(19,20)                1.4            estimate D2E/DX2                !
 ! A1    A(2,1,10)             108.0368         estimate D2E/DX2                !
 ! A2    A(2,1,11)             108.0271         estimate D2E/DX2                !
 ! A3    A(10,1,11)            108.0111         estimate D2E/DX2                !
 ! A4    A(1,2,3)              107.9922         estimate D2E/DX2                !
 ! A5    A(1,2,16)             107.9873         estimate D2E/DX2                !
 ! A6    A(3,2,16)             108.0595         estimate D2E/DX2                !
 ! A7    A(2,3,4)              107.9729         estimate D2E/DX2                !
 ! A8    A(2,3,15)             108.0185         estimate D2E/DX2                !
 ! A9    A(4,3,15)             107.9579         estimate D2E/DX2                !
 ! A10   A(3,4,5)              108.0185         estimate D2E/DX2                !
 ! A11   A(3,4,17)             107.9832         estimate D2E/DX2                !
 ! A12   A(5,4,17)             108.0016         estimate D2E/DX2                !
 ! A13   A(4,5,6)              108.005          estimate D2E/DX2                !
 ! A14   A(4,5,14)             107.9867         estimate D2E/DX2                !
 ! A15   A(6,5,14)             107.9669         estimate D2E/DX2                !
 ! A16   A(5,6,7)              108.0368         estimate D2E/DX2                !
 ! A17   A(5,6,18)             108.0111         estimate D2E/DX2                !
 ! A18   A(7,6,18)             108.0271         estimate D2E/DX2                !
 ! A19   A(6,7,8)              107.9922         estimate D2E/DX2                !
 ! A20   A(6,7,13)             107.9873         estimate D2E/DX2                !
 ! A21   A(8,7,13)             108.0595         estimate D2E/DX2                !
 ! A22   A(7,8,9)              107.9729         estimate D2E/DX2                !
 ! A23   A(7,8,19)             108.0185         estimate D2E/DX2                !
 ! A24   A(9,8,19)             107.9579         estimate D2E/DX2                !
 ! A25   A(8,9,10)             108.0185         estimate D2E/DX2                !
 ! A26   A(8,9,12)             107.9832         estimate D2E/DX2                !
 ! A27   A(10,9,12)            108.0016         estimate D2E/DX2                !
 ! A28   A(1,10,9)             108.005          estimate D2E/DX2                !
 ! A29   A(1,10,20)            107.9669         estimate D2E/DX2                !
 ! A30   A(9,10,20)            107.9867         estimate D2E/DX2                !
 ! A31   A(1,11,12)            108.0027         estimate D2E/DX2                !
 ! A32   A(1,11,15)            107.9925         estimate D2E/DX2                !
 ! A33   A(12,11,15)           108.0073         estimate D2E/DX2                !
 ! A34   A(9,12,11)            107.9796         estimate D2E/DX2                !
 ! A35   A(9,12,13)            108.0118         estimate D2E/DX2                !
 ! A36   A(11,12,13)           107.987          estimate D2E/DX2                !
 ! A37   A(7,13,12)            107.9726         estimate D2E/DX2                !
 ! A38   A(7,13,14)            108.0042         estimate D2E/DX2                !
 ! A39   A(12,13,14)           107.9883         estimate D2E/DX2                !
 ! A40   A(5,14,13)            108.0047         estimate D2E/DX2                !
 ! A41   A(5,14,15)            108.0202         estimate D2E/DX2                !
 ! A42   A(13,14,15)           108.0345         estimate D2E/DX2                !
 ! A43   A(3,15,11)            107.9697         estimate D2E/DX2                !
 ! A44   A(3,15,14)            108.0167         estimate D2E/DX2                !
 ! A45   A(11,15,14)           107.9829         estimate D2E/DX2                !
 ! A46   A(2,16,17)            107.9726         estimate D2E/DX2                !
 ! A47   A(2,16,20)            108.0042         estimate D2E/DX2                !
 ! A48   A(17,16,20)           107.9883         estimate D2E/DX2                !
 ! A49   A(4,17,16)            108.0118         estimate D2E/DX2                !
 ! A50   A(4,17,18)            107.9796         estimate D2E/DX2                !
 ! A51   A(16,17,18)           107.987          estimate D2E/DX2                !
 ! A52   A(6,18,17)            108.0027         estimate D2E/DX2                !
 ! A53   A(6,18,19)            107.9925         estimate D2E/DX2                !
 ! A54   A(17,18,19)           108.0073         estimate D2E/DX2                !
 ! A55   A(8,19,18)            107.9697         estimate D2E/DX2                !
 ! A56   A(8,19,20)            108.0167         estimate D2E/DX2                !
 ! A57   A(18,19,20)           107.9829         estimate D2E/DX2                !
 ! A58   A(10,20,16)           108.0047         estimate D2E/DX2                !
 ! A59   A(10,20,19)           108.0202         estimate D2E/DX2                !
 ! A60   A(16,20,19)           108.0345         estimate D2E/DX2                !
 ! D1    D(10,1,2,3)           116.6286         estimate D2E/DX2                !
 ! D2    D(10,1,2,16)            0.0043         estimate D2E/DX2                !
 ! D3    D(11,1,2,3)             0.0168         estimate D2E/DX2                !
 ! D4    D(11,1,2,16)         -116.6074         estimate D2E/DX2                !
 ! D5    D(2,1,10,9)          -116.5718         estimate D2E/DX2                !
 ! D6    D(2,1,10,20)           -0.0371         estimate D2E/DX2                !
 ! D7    D(11,1,10,9)            0.0503         estimate D2E/DX2                !
 ! D8    D(11,1,10,20)         116.585          estimate D2E/DX2                !
 ! D9    D(2,1,11,12)          116.5817         estimate D2E/DX2                !
 ! D10   D(2,1,11,15)            0.0107         estimate D2E/DX2                !
 ! D11   D(10,1,11,12)          -0.0467         estimate D2E/DX2                !
 ! D12   D(10,1,11,15)        -116.6178         estimate D2E/DX2                !
 ! D13   D(1,2,3,4)           -116.5489         estimate D2E/DX2                !
 ! D14   D(1,2,3,15)            -0.0379         estimate D2E/DX2                !
 ! D15   D(16,2,3,4)             0.0284         estimate D2E/DX2                !
 ! D16   D(16,2,3,15)          116.5394         estimate D2E/DX2                !
 ! D17   D(1,2,16,17)          116.5693         estimate D2E/DX2                !
 ! D18   D(1,2,16,20)            0.0302         estimate D2E/DX2                !
 ! D19   D(3,2,16,17)           -0.0112         estimate D2E/DX2                !
 ! D20   D(3,2,16,20)         -116.5503         estimate D2E/DX2                !
 ! D21   D(2,3,4,5)            116.5331         estimate D2E/DX2                !
 ! D22   D(2,3,4,17)            -0.0348         estimate D2E/DX2                !
 ! D23   D(15,3,4,5)            -0.0173         estimate D2E/DX2                !
 ! D24   D(15,3,4,17)         -116.5852         estimate D2E/DX2                !
 ! D25   D(2,3,15,11)            0.0445         estimate D2E/DX2                !
 ! D26   D(2,3,15,14)         -116.4933         estimate D2E/DX2                !
 ! D27   D(4,3,15,11)          116.5652         estimate D2E/DX2                !
 ! D28   D(4,3,15,14)            0.0274         estimate D2E/DX2                !
 ! D29   D(3,4,5,6)           -116.5212         estimate D2E/DX2                !
 ! D30   D(3,4,5,14)             0.0006         estimate D2E/DX2                !
 ! D31   D(17,4,5,6)             0.0347         estimate D2E/DX2                !
 ! D32   D(17,4,5,14)          116.5565         estimate D2E/DX2                !
 ! D33   D(3,4,17,16)            0.0279         estimate D2E/DX2                !
 ! D34   D(3,4,17,18)          116.573          estimate D2E/DX2                !
 ! D35   D(5,4,17,16)         -116.551          estimate D2E/DX2                !
 ! D36   D(5,4,17,18)           -0.0058         estimate D2E/DX2                !
 ! D37   D(4,5,6,7)            116.5718         estimate D2E/DX2                !
 ! D38   D(4,5,6,18)            -0.0503         estimate D2E/DX2                !
 ! D39   D(14,5,6,7)             0.0371         estimate D2E/DX2                !
 ! D40   D(14,5,6,18)         -116.585          estimate D2E/DX2                !
 ! D41   D(4,5,14,13)         -116.6024         estimate D2E/DX2                !
 ! D42   D(4,5,14,15)            0.0164         estimate D2E/DX2                !
 ! D43   D(6,5,14,13)           -0.0558         estimate D2E/DX2                !
 ! D44   D(6,5,14,15)          116.563          estimate D2E/DX2                !
 ! D45   D(5,6,7,8)           -116.6286         estimate D2E/DX2                !
 ! D46   D(5,6,7,13)            -0.0043         estimate D2E/DX2                !
 ! D47   D(18,6,7,8)            -0.0168         estimate D2E/DX2                !
 ! D48   D(18,6,7,13)          116.6074         estimate D2E/DX2                !
 ! D49   D(5,6,18,17)            0.0467         estimate D2E/DX2                !
 ! D50   D(5,6,18,19)          116.6178         estimate D2E/DX2                !
 ! D51   D(7,6,18,17)         -116.5817         estimate D2E/DX2                !
 ! D52   D(7,6,18,19)           -0.0107         estimate D2E/DX2                !
 ! D53   D(6,7,8,9)            116.5489         estimate D2E/DX2                !
 ! D54   D(6,7,8,19)             0.0379         estimate D2E/DX2                !
 ! D55   D(13,7,8,9)            -0.0284         estimate D2E/DX2                !
 ! D56   D(13,7,8,19)         -116.5394         estimate D2E/DX2                !
 ! D57   D(6,7,13,12)         -116.5693         estimate D2E/DX2                !
 ! D58   D(6,7,13,14)           -0.0302         estimate D2E/DX2                !
 ! D59   D(8,7,13,12)            0.0112         estimate D2E/DX2                !
 ! D60   D(8,7,13,14)          116.5503         estimate D2E/DX2                !
 ! D61   D(7,8,9,10)          -116.5331         estimate D2E/DX2                !
 ! D62   D(7,8,9,12)             0.0348         estimate D2E/DX2                !
 ! D63   D(19,8,9,10)            0.0173         estimate D2E/DX2                !
 ! D64   D(19,8,9,12)          116.5852         estimate D2E/DX2                !
 ! D65   D(7,8,19,18)           -0.0445         estimate D2E/DX2                !
 ! D66   D(7,8,19,20)          116.4933         estimate D2E/DX2                !
 ! D67   D(9,8,19,18)         -116.5652         estimate D2E/DX2                !
 ! D68   D(9,8,19,20)           -0.0274         estimate D2E/DX2                !
 ! D69   D(8,9,10,1)           116.5212         estimate D2E/DX2                !
 ! D70   D(8,9,10,20)           -0.0006         estimate D2E/DX2                !
 ! D71   D(12,9,10,1)           -0.0347         estimate D2E/DX2                !
 ! D72   D(12,9,10,20)        -116.5565         estimate D2E/DX2                !
 ! D73   D(8,9,12,11)         -116.573          estimate D2E/DX2                !
 ! D74   D(8,9,12,13)           -0.0279         estimate D2E/DX2                !
 ! D75   D(10,9,12,11)           0.0058         estimate D2E/DX2                !
 ! D76   D(10,9,12,13)         116.551          estimate D2E/DX2                !
 ! D77   D(1,10,20,16)           0.0558         estimate D2E/DX2                !
 ! D78   D(1,10,20,19)        -116.563          estimate D2E/DX2                !
 ! D79   D(9,10,20,16)         116.6024         estimate D2E/DX2                !
 ! D80   D(9,10,20,19)          -0.0164         estimate D2E/DX2                !
 ! D81   D(1,11,12,9)            0.0253         estimate D2E/DX2                !
 ! D82   D(1,11,12,13)        -116.536          estimate D2E/DX2                !
 ! D83   D(15,11,12,9)         116.5867         estimate D2E/DX2                !
 ! D84   D(15,11,12,13)          0.0254         estimate D2E/DX2                !
 ! D85   D(1,11,15,3)           -0.0341         estimate D2E/DX2                !
 ! D86   D(1,11,15,14)         116.5257         estimate D2E/DX2                !
 ! D87   D(12,11,15,3)        -116.6021         estimate D2E/DX2                !
 ! D88   D(12,11,15,14)         -0.0424         estimate D2E/DX2                !
 ! D89   D(9,12,13,7)            0.0103         estimate D2E/DX2                !
 ! D90   D(9,12,13,14)        -116.5391         estimate D2E/DX2                !
 ! D91   D(11,12,13,7)         116.5507         estimate D2E/DX2                !
 ! D92   D(11,12,13,14)          0.0012         estimate D2E/DX2                !
 ! D93   D(7,13,14,5)            0.0531         estimate D2E/DX2                !
 ! D94   D(7,13,14,15)        -116.5563         estimate D2E/DX2                !
 ! D95   D(12,13,14,5)         116.582          estimate D2E/DX2                !
 ! D96   D(12,13,14,15)         -0.0274         estimate D2E/DX2                !
 ! D97   D(5,14,15,3)           -0.0271         estimate D2E/DX2                !
 ! D98   D(5,14,15,11)        -116.5563         estimate D2E/DX2                !
 ! D99   D(13,14,15,3)         116.5723         estimate D2E/DX2                !
 ! D100  D(13,14,15,11)          0.0432         estimate D2E/DX2                !
 ! D101  D(2,16,17,4)           -0.0103         estimate D2E/DX2                !
 ! D102  D(2,16,17,18)        -116.5507         estimate D2E/DX2                !
 ! D103  D(20,16,17,4)         116.5391         estimate D2E/DX2                !
 ! D104  D(20,16,17,18)         -0.0012         estimate D2E/DX2                !
 ! D105  D(2,16,20,10)          -0.0531         estimate D2E/DX2                !
 ! D106  D(2,16,20,19)         116.5563         estimate D2E/DX2                !
 ! D107  D(17,16,20,10)       -116.582          estimate D2E/DX2                !
 ! D108  D(17,16,20,19)          0.0274         estimate D2E/DX2                !
 ! D109  D(4,17,18,6)           -0.0253         estimate D2E/DX2                !
 ! D110  D(4,17,18,19)        -116.5867         estimate D2E/DX2                !
 ! D111  D(16,17,18,6)         116.536          estimate D2E/DX2                !
 ! D112  D(16,17,18,19)         -0.0254         estimate D2E/DX2                !
 ! D113  D(6,18,19,8)            0.0341         estimate D2E/DX2                !
 ! D114  D(6,18,19,20)        -116.5257         estimate D2E/DX2                !
 ! D115  D(17,18,19,8)         116.6021         estimate D2E/DX2                !
 ! D116  D(17,18,19,20)          0.0424         estimate D2E/DX2                !
 ! D117  D(8,19,20,10)           0.0271         estimate D2E/DX2                !
 ! D118  D(8,19,20,16)        -116.5723         estimate D2E/DX2                !
 ! D119  D(18,19,20,10)        116.5563         estimate D2E/DX2                !
 ! D120  D(18,19,20,16)         -0.0432         estimate D2E/DX2                !
 --------------------------------------------------------------------------------
 Trust Radius=3.00D-01 FncErr=1.00D-07 GrdErr=1.00D-06 EigMax=2.50D+02 EigMin=1.00D-04
 Number of steps in this run=    120 maximum allowed number of steps=    120.
 GradGradGradGradGradGradGradGradGradGradGradGradGradGradGradGradGradGrad

                          Input orientation:                          
 ---------------------------------------------------------------------
 Center     Atomic      Atomic             Coordinates (Angstroms)
 Number     Number       Type             X           Y           Z
 ---------------------------------------------------------------------
      1          6           0        1.123000    1.596000    0.195000
      2          6           0        0.988000    0.928000    1.418000
      3          6           0        1.463000   -0.378000    1.252000
      4          6           0        0.391000   -1.257000    1.455000
      5          6           0        0.157000   -1.939000    0.255000
      6          6           0       -1.123000   -1.596000   -0.195000
      7          6           0       -0.988000   -0.928000   -1.418000
      8          6           0       -1.463000    0.378000   -1.252000
      9          6           0       -0.391000    1.257000   -1.455000
     10          6           0       -0.157000    1.939000   -0.255000
     11          6           0        1.681000    0.703000   -0.727000
     12          6           0        0.745000    0.493000   -1.747000
     13          6           0        0.376000   -0.858000   -1.724000
     14          6           0        1.084000   -1.482000   -0.690000
     15          6           0        1.891000   -0.518000   -0.074000
     16          6           0       -0.376000    0.858000    1.724000
     17          6           0       -0.745000   -0.493000    1.747000
     18          6           0       -1.681000   -0.703000    0.727000
     19          6           0       -1.891000    0.518000    0.074000
     20          6           0       -1.084000    1.482000    0.690000
 ---------------------------------------------------------------------
                    Distance matrix (angstroms):
                    1          2          3          4          5
     1  C    0.000000
     2  C    1.400064   0.000000
     3  C    2.264845   1.399577   0.000000
     4  C    3.203597   2.265392   1.401083   0.000000
     5  C    3.665103   3.203563   2.266355   1.399957   0.000000
     6  C    3.922433   3.664514   3.203862   2.264866   1.399482
     7  C    3.664514   3.923290   3.665897   3.203750   2.265408
     8  C    3.203862   3.665897   3.924669   3.665841   3.203738
     9  C    2.264866   3.203750   3.665841   3.924260   3.665900
    10  C    1.399482   2.265408   3.203738   3.665900   3.923975
    11  C    1.399606   2.265370   2.265508   3.204189   3.204226
    12  C    2.265140   3.203982   3.204398   3.666145   3.204430
    13  C    3.203543   3.665584   3.204457   3.203977   2.265604
    14  C    3.202941   3.203276   2.265794   2.265370   1.400430
    15  C    2.265211   2.265478   1.400379   2.265825   2.265886
    16  C    2.264837   1.399654   2.265480   2.265806   3.203944
    17  C    3.203443   2.265121   2.265726   1.399806   2.265079
    18  C    3.664811   3.203311   3.204058   2.264969   2.264669
    19  C    3.203267   3.203604   3.666035   3.203952   3.203734
    20  C    2.264701   2.264969   3.203538   3.203587   3.665044
                    6          7          8          9         10
     6  C    0.000000
     7  C    1.400064   0.000000
     8  C    2.264845   1.399577   0.000000
     9  C    3.203597   2.265392   1.401083   0.000000
    10  C    3.665103   3.203563   2.266355   1.399957   0.000000
    11  C    3.664811   3.203311   3.204058   2.264969   2.264669
    12  C    3.203443   2.265121   2.265726   1.399806   2.265079
    13  C    2.264837   1.399654   2.265480   2.265806   3.203944
    14  C    2.264701   2.264969   3.203538   3.203587   3.665044
    15  C    3.203267   3.203604   3.666035   3.203952   3.203734
    16  C    3.203543   3.665584   3.204457   3.203977   2.265604
    17  C    2.265140   3.203982   3.204398   3.666145   3.204430
    18  C    1.399606   2.265370   2.265508   3.204189   3.204226
    19  C    2.265211   2.265478   1.400379   2.265825   2.265886
    20  C    3.202941   3.203276   2.265794   2.265370   1.400430
                   11         12         13         14         15
    11  C    0.000000
    12  C    1.400213   0.000000
    13  C    2.265779   1.400675   0.000000
    14  C    2.265392   2.265567   1.399927   0.000000
    15  C    1.400482   2.265914   2.265684   1.400000   0.000000
    16  C    3.203541   3.665748   3.924139   3.665323   3.203977
    17  C    3.665592   3.924326   3.665748   3.203487   3.203929
    18  C    3.923518   3.665592   3.203541   3.203116   3.665380
    19  C    3.665380   3.203929   3.203977   3.665286   3.924121
    20  C    3.203116   3.203487   3.665323   3.922999   3.665286
                   16         17         18         19         20
    16  C    0.000000
    17  C    1.400675   0.000000
    18  C    2.265779   1.400213   0.000000
    19  C    2.265684   2.265914   1.400482   0.000000
    20  C    1.399927   2.265567   2.265392   1.400000   0.000000
 Symmetry turned off by external request.
 Stoichiometry    C20
 Framework group  CI[X(C20)]
 Deg. of freedom    27
 Full point group                 CI      NOp   2
 Rotational constants (GHZ):           0.8207425           0.8206092           0.8205500
 Standard basis: 6-31G (6D, 7F)
   180 basis functions,   440 primitive gaussians,   180 cartesian basis functions
    60 alpha electrons       60 beta electrons
       nuclear repulsion energy      1474.0003508276 Hartrees.
 NAtoms=   20 NActive=   20 NUniq=   20 SFac= 1.00D+00 NAtFMM=   60 NAOKFM=F Big=F
 Integral buffers will be    131072 words long.
 Raffenetti 2 integral format.
 Two-electron integral symmetry is turned off.
 Nuclear repulsion after empirical dispersion term =     1473.9783470588 Hartrees.
 One-electron integrals computed using PRISM.
 NBasis=   180 RedAO= T EigKep=  6.97D-04  NBF=   180
 NBsUse=   180 1.00D-06 EigRej= -1.00D+00 NBFU=   180
 ExpMin= 1.69D-01 ExpMax= 3.05D+03 ExpMxC= 4.57D+02 IAcc=3 IRadAn=         5 AccDes= 0.00D+00
 Harris functional with IExCor=  402 and IRadAn=       5 diagonalized for initial guess.
 HarFok:  IExCor=  402 AccDes= 0.00D+00 IRadAn=         5 IDoV= 1 UseB2=F ITyADJ=14
 ICtDFT=  3500011 ScaDFX=  1.000000  1.000000  1.000000  1.000000
 FoFCou: FMM=F IPFlag=           0 FMFlag=      100000 FMFlg1=           0
         NFxFlg=           0 DoJE=T BraDBF=F KetDBF=T FulRan=T
         wScrn=  0.000000 ICntrl=       500 IOpCl=  0 I1Cent=   200000004 NGrid=           0
         NMat0=    1 NMatS0=      1 NMatT0=    0 NMatD0=    1 NMtDS0=    0 NMtDT0=    0
 Symmetry not used in FoFCou.
 Keep R1 ints in memory in canonical form, NReq=136724827.
 Requested convergence on RMS density matrix=1.00D-08 within 128 cycles.
 Requested convergence on MAX density matrix=1.00D-06.
 Requested convergence on             energy=1.00D-06.
 No special actions if energy rises.
 Integral accuracy reduced to 1.0D-05 until final iterations.
 Initial convergence to 1.0D-05 achieved.  Increase integral accuracy.
 SCF Done:  E(RB3LYP) =  -761.098553176     A.U. after  116 cycles
            NFock=116  Conv=0.62D-08     -V/T= 1.9992

 **********************************************************************

            Population analysis using the SCF density.

 **********************************************************************

 Alpha  occ. eigenvalues --  -10.25671 -10.25669 -10.25554 -10.25553 -10.25124
 Alpha  occ. eigenvalues --  -10.25122 -10.24965 -10.24963 -10.24469 -10.24467
 Alpha  occ. eigenvalues --  -10.23982 -10.23979 -10.23936 -10.23936 -10.23156
 Alpha  occ. eigenvalues --  -10.23154 -10.22987 -10.22986 -10.20898 -10.20897
 Alpha  occ. eigenvalues --   -1.08892  -1.00004  -0.99072  -0.98593  -0.84556
 Alpha  occ. eigenvalues --   -0.84442  -0.84278  -0.83602  -0.83192  -0.67329
 Alpha  occ. eigenvalues --   -0.67142  -0.67008  -0.66060  -0.65980  -0.65830
 Alpha  occ. eigenvalues --   -0.65292  -0.51897  -0.51232  -0.51017  -0.50835
 Alpha  occ. eigenvalues --   -0.50798  -0.47058  -0.46955  -0.46691  -0.46549
 Alpha  occ. eigenvalues --   -0.46336  -0.43710  -0.42927  -0.42522  -0.39653
 Alpha  occ. eigenvalues --   -0.39500  -0.38823  -0.38672  -0.38433  -0.28795
 Alpha  occ. eigenvalues --   -0.28747  -0.28547  -0.28048  -0.27723  -0.16047
 Alpha virt. eigenvalues --   -0.13303  -0.13183  -0.13140  -0.04830  -0.04050
 Alpha virt. eigenvalues --   -0.03862  -0.01243  -0.00700  -0.00283  -0.00000
 Alpha virt. eigenvalues --    0.11054   0.11202   0.11442   0.23663   0.23697
 Alpha virt. eigenvalues --    0.24386   0.24432   0.24504   0.24782   0.25016
 Alpha virt. eigenvalues --    0.25106   0.25174   0.25321   0.25327   0.39406
 Alpha virt. eigenvalues --    0.39686   0.39713   0.39768   0.44780   0.44854
 Alpha virt. eigenvalues --    0.44883   0.45170   0.48170   0.48282   0.48618
 Alpha virt. eigenvalues --    0.48799   0.48947   0.48972   0.51108   0.51195
 Alpha virt. eigenvalues --    0.51402   0.51410   0.51640   0.51962   0.52084
 Alpha virt. eigenvalues --    0.52418   0.54928   0.55029   0.55037   0.55549
 Alpha virt. eigenvalues --    0.56135   0.61528   0.61600   0.62031   0.62526
 Alpha virt. eigenvalues --    0.62674   0.63159   0.63236   0.63454   0.63985
 Alpha virt. eigenvalues --    0.64091   0.64251   0.64331   0.64445   0.64464
 Alpha virt. eigenvalues --    0.65158   0.65579   0.65951   0.66724   0.67499
 Alpha virt. eigenvalues --    0.67719   0.78730   0.79005   0.79081   0.80860
 Alpha virt. eigenvalues --    0.80881   0.81043   0.82329   0.82422   0.82453
 Alpha virt. eigenvalues --    0.82617   0.82649   0.86865   0.87230   0.87280
 Alpha virt. eigenvalues --    0.87512   0.87995   0.88251   0.88662   0.96254
 Alpha virt. eigenvalues --    0.96293   0.96433   0.96591   0.97388   0.97565
 Alpha virt. eigenvalues --    0.97677   0.97834   0.97971   1.01445   1.02183
 Alpha virt. eigenvalues --    1.02508   1.10021   1.10074   1.10301   1.52474
 Alpha virt. eigenvalues --    1.52556   1.52662   1.53375   1.53461   1.66751
 Alpha virt. eigenvalues --    1.66881   1.67083   2.63322   2.63720   2.63755
 Alpha virt. eigenvalues --    2.63871   2.67258   2.67327   2.67420   2.68179
          Condensed to atoms (all electrons):
               1          2          3          4          5          6
     1  C    5.468620   0.265602  -0.154041   0.014481  -0.004428  -0.000946
     2  C    0.265602   5.464429   0.535404  -0.152205   0.017569   0.028324
     3  C   -0.154041   0.535404   5.401786   0.352149  -0.029976   0.014688
     4  C    0.014481  -0.152205   0.352149   5.364718   0.341359  -0.153377
     5  C   -0.004428   0.017569  -0.029976   0.341359   5.420644   0.558429
     6  C   -0.000946   0.028324   0.014688  -0.153377   0.558429   5.468620
     7  C    0.028324  -0.000366  -0.001985   0.014476  -0.163259   0.265602
     8  C    0.014688  -0.001985   0.005558   0.019882  -0.023456  -0.154041
     9  C   -0.153377   0.014476   0.019882   0.005230   0.021157   0.014481
    10  C    0.558429  -0.163259  -0.023456   0.021157   0.003404  -0.004428
    11  C    0.452286  -0.096610  -0.111161  -0.008626  -0.018277   0.007893
    12  C   -0.210950   0.040086   0.022809  -0.006746   0.028604   0.041071
    13  C    0.005821   0.005501  -0.021017  -0.004642  -0.119870  -0.110551
    14  C    0.001480  -0.025602  -0.135389  -0.062826   0.366277  -0.142289
    15  C   -0.055356  -0.142106   0.374267  -0.066614  -0.137123  -0.025059
    16  C   -0.110551   0.473233  -0.080829  -0.111755   0.001282   0.005821
    17  C    0.041071  -0.207591  -0.178656   0.576353  -0.191843  -0.210950
    18  C    0.007893   0.001403  -0.003903  -0.105879  -0.086341   0.452286
    19  C   -0.025059   0.000895   0.016464  -0.016967  -0.000994  -0.055356
    20  C   -0.142289  -0.056461  -0.002976  -0.016288   0.017373   0.001480
               7          8          9         10         11         12
     1  C    0.028324   0.014688  -0.153377   0.558429   0.452286  -0.210950
     2  C   -0.000366  -0.001985   0.014476  -0.163259  -0.096610   0.040086
     3  C   -0.001985   0.005558   0.019882  -0.023456  -0.111161   0.022809
     4  C    0.014476   0.019882   0.005230   0.021157  -0.008626  -0.006746
     5  C   -0.163259  -0.023456   0.021157   0.003404  -0.018277   0.028604
     6  C    0.265602  -0.154041   0.014481  -0.004428   0.007893   0.041071
     7  C    5.464429   0.535404  -0.152205   0.017569   0.001403  -0.207591
     8  C    0.535404   5.401786   0.352149  -0.029976  -0.003903  -0.178656
     9  C   -0.152205   0.352149   5.364718   0.341359  -0.105879   0.576353
    10  C    0.017569  -0.029976   0.341359   5.420644  -0.086341  -0.191843
    11  C    0.001403  -0.003903  -0.105879  -0.086341   5.320554   0.380597
    12  C   -0.207591  -0.178656   0.576353  -0.191843   0.380597   5.598151
    13  C    0.473233  -0.080829  -0.111755   0.001282  -0.074846   0.350854
    14  C   -0.056461  -0.002976  -0.016288   0.017373  -0.099636  -0.141404
    15  C    0.000895   0.016464  -0.016967  -0.000994   0.428967  -0.142819
    16  C    0.005501  -0.021017  -0.004642  -0.119870  -0.008203   0.017815
    17  C    0.040086   0.022809  -0.006746   0.028604   0.014500  -0.011344
    18  C   -0.096610  -0.111161  -0.008626  -0.018277   0.010551   0.014500
    19  C   -0.142106   0.374267  -0.066614  -0.137123   0.010085   0.011884
    20  C   -0.025602  -0.135389  -0.062826   0.366277  -0.014415   0.013009
              13         14         15         16         17         18
     1  C    0.005821   0.001480  -0.055356  -0.110551   0.041071   0.007893
     2  C    0.005501  -0.025602  -0.142106   0.473233  -0.207591   0.001403
     3  C   -0.021017  -0.135389   0.374267  -0.080829  -0.178656  -0.003903
     4  C   -0.004642  -0.062826  -0.066614  -0.111755   0.576353  -0.105879
     5  C   -0.119870   0.366277  -0.137123   0.001282  -0.191843  -0.086341
     6  C   -0.110551  -0.142289  -0.025059   0.005821  -0.210950   0.452286
     7  C    0.473233  -0.056461   0.000895   0.005501   0.040086  -0.096610
     8  C   -0.080829  -0.002976   0.016464  -0.021017   0.022809  -0.111161
     9  C   -0.111755  -0.016288  -0.016967  -0.004642  -0.006746  -0.008626
    10  C    0.001282   0.017373  -0.000994  -0.119870   0.028604  -0.018277
    11  C   -0.074846  -0.099636   0.428967  -0.008203   0.014500   0.010551
    12  C    0.350854  -0.141404  -0.142819   0.017815  -0.011344   0.014500
    13  C    5.328770   0.439177  -0.094188   0.009717   0.017815  -0.008203
    14  C    0.439177   5.382834   0.446966   0.009015   0.013009  -0.014415
    15  C   -0.094188   0.446966   5.386420  -0.016651   0.011884   0.010085
    16  C    0.009717   0.009015  -0.016651   5.328770   0.350854  -0.074846
    17  C    0.017815   0.013009   0.011884   0.350854   5.598151   0.380597
    18  C   -0.008203  -0.014415   0.010085  -0.074846   0.380597   5.320554
    19  C   -0.016651   0.007490   0.009918  -0.094188  -0.142819   0.428967
    20  C    0.009015   0.009768   0.007490   0.439177  -0.141404  -0.099636
              19         20
     1  C   -0.025059  -0.142289
     2  C    0.000895  -0.056461
     3  C    0.016464  -0.002976
     4  C   -0.016967  -0.016288
     5  C   -0.000994   0.017373
     6  C   -0.055356   0.001480
     7  C   -0.142106  -0.025602
     8  C    0.374267  -0.135389
     9  C   -0.066614  -0.062826
    10  C   -0.137123   0.366277
    11  C    0.010085  -0.014415
    12  C    0.011884   0.013009
    13  C   -0.016651   0.009015
    14  C    0.007490   0.009768
    15  C    0.009918   0.007490
    16  C   -0.094188   0.439177
    17  C   -0.142819  -0.141404
    18  C    0.428967  -0.099636
    19  C    5.386420   0.446966
    20  C    0.446966   5.382834
 Mulliken charges:
               1
     1  C   -0.001698
     2  C   -0.000736
     3  C    0.000382
     4  C   -0.003882
     5  C   -0.000531
     6  C   -0.001698
     7  C   -0.000736
     8  C    0.000382
     9  C   -0.003882
    10  C   -0.000531
    11  C    0.001061
    12  C   -0.004379
    13  C    0.001367
    14  C    0.003897
    15  C    0.004520
    16  C    0.001367
    17  C   -0.004379
    18  C    0.001061
    19  C    0.004520
    20  C    0.003897
 Sum of Mulliken charges =  -0.00000
 Mulliken charges with hydrogens summed into heavy atoms:
               1
     1  C   -0.001698
     2  C   -0.000736
     3  C    0.000382
     4  C   -0.003882
     5  C   -0.000531
     6  C   -0.001698
     7  C   -0.000736
     8  C    0.000382
     9  C   -0.003882
    10  C   -0.000531
    11  C    0.001061
    12  C   -0.004379
    13  C    0.001367
    14  C    0.003897
    15  C    0.004520
    16  C    0.001367
    17  C   -0.004379
    18  C    0.001061
    19  C    0.004520
    20  C    0.003897
 Electronic spatial extent (au):  <R**2>=           1896.6887
 Charge=             -0.0000 electrons
 Dipole moment (field-independent basis, Debye):
    X=             -0.0000    Y=             -0.0000    Z=             -0.0000  Tot=              0.0000
 Quadrupole moment (field-independent basis, Debye-Ang):
   XX=           -108.3468   YY=           -110.8616   ZZ=           -113.3995
   XY=             -2.4165   XZ=              0.0207   YZ=              1.2753
 Traceless Quadrupole moment (field-independent basis, Debye-Ang):
   XX=              2.5225   YY=              0.0077   ZZ=             -2.5302
   XY=             -2.4165   XZ=              0.0207   YZ=              1.2753
 Octapole moment (field-independent basis, Debye-Ang**2):
  XXX=             -0.0000  YYY=             -0.0000  ZZZ=             -0.0000  XYY=             -0.0000
  XXY=             -0.0000  XXZ=              0.0000  XZZ=              0.0000  YZZ=             -0.0000
  YYZ=              0.0000  XYZ=             -0.0000
 Hexadecapole moment (field-independent basis, Debye-Ang**3):
 XXXX=           -947.3084 YYYY=           -972.9829 ZZZZ=           -991.6033 XXXY=             -4.2517
 XXXZ=             -3.6718 YYYX=            -10.9004 YYYZ=              2.0961 ZZZX=              4.0599
 ZZZY=             10.5563 XXYY=           -320.1162 XXZZ=           -325.0694 YYZZ=           -322.2083
 XXYZ=             -0.9457 YYXZ=             -0.1580 ZZXY=             -6.9276
 N-N= 1.473978347059D+03 E-N=-4.713464602770D+03  KE= 7.617369104229D+02
 Calling FoFJK, ICntrl=      2127 FMM=F ISym2X=0 I1Cent= 0 IOpClX= 0 NMat=1 NMatS=1 NMatT=0.
 -------------------------------------------------------------------
 Center     Atomic                   Forces (Hartrees/Bohr)
 Number     Number              X              Y              Z
 -------------------------------------------------------------------
      1        6           0.024407451    0.079320901   -0.023941164
      2        6           0.035942999    0.005413071    0.075341029
      3        6           0.042458646    0.020535024    0.051669036
      4        6          -0.029845523   -0.014579511    0.065229387
      5        6          -0.032962614   -0.069750504   -0.005432941
      6        6          -0.024407451   -0.079320901    0.023941164
      7        6          -0.035942999   -0.005413071   -0.075341029
      8        6          -0.042458646   -0.020535024   -0.051669036
      9        6           0.029845523    0.014579511   -0.065229387
     10        6           0.032962614    0.069750504    0.005432941
     11        6           0.029642840    0.022366573   -0.013838100
     12        6           0.014448269    0.054051748   -0.094971109
     13        6          -0.004208465   -0.020891793   -0.037053679
     14        6           0.035101978   -0.035451006   -0.026184085
     15        6           0.053401906   -0.015686115   -0.011688664
     16        6           0.004208465    0.020891793    0.037053679
     17        6          -0.014448269   -0.054051749    0.094971109
     18        6          -0.029642840   -0.022366573    0.013838100
     19        6          -0.053401906    0.015686115    0.011688664
     20        6          -0.035101978    0.035451006    0.026184085
 -------------------------------------------------------------------
 Cartesian Forces:  Max     0.094971109 RMS     0.041891965

 GradGradGradGradGradGradGradGradGradGradGradGradGradGradGradGradGradGrad
 Berny optimization.
 FormGI is forming the generalized inverse of G from B-inverse, IUseBI=4.
 Internal  Forces:  Max     0.086741318 RMS     0.023572606
 Search for a local minimum.
 Step number   1 out of a maximum of  120
 All quantities printed in internal units (Hartrees-Bohrs-Radians)
 Mixed Optimization -- RFO/linear search
 Second derivative matrix not updated -- first step.
 ITU=  0
     Eigenvalues ---    0.06037   0.06037   0.06038   0.06039   0.06039
     Eigenvalues ---    0.06040   0.06041   0.07776   0.07784   0.07786
     Eigenvalues ---    0.07789   0.07951   0.07955   0.07955   0.07958
     Eigenvalues ---    0.07959   0.08391   0.08393   0.08396   0.11763
     Eigenvalues ---    0.11767   0.11776   0.11780   0.11783   0.17873
     Eigenvalues ---    0.17877   0.17887   0.17891   0.17895   0.23433
     Eigenvalues ---    0.23449   0.23451   0.23464   0.36470   0.36485
     Eigenvalues ---    0.36512   0.38935   0.38947   0.38955   0.38965
     Eigenvalues ---    0.40994   0.41030   0.41063   0.41072   0.41086
     Eigenvalues ---    0.45522   0.45563   0.45582   0.45595   0.45613
     Eigenvalues ---    0.45614   0.45642   0.45651   0.45674
 RFO step:  Lambda=-1.87655289D-01 EMin= 6.03668806D-02
 Linear search not attempted -- first point.
 Maximum step size (   0.300) exceeded in Quadratic search.
    -- Step size scaled by   0.560
 Iteration  1 RMS(Cart)=  0.02410089 RMS(Int)=  0.00016350
 Iteration  2 RMS(Cart)=  0.00012837 RMS(Int)=  0.00005904
 Iteration  3 RMS(Cart)=  0.00000002 RMS(Int)=  0.00005904
 Variable       Old X    -DE/DX   Delta X   Delta X   Delta X     New X
                                 (Linear)    (Quad)   (Total)
    R1        2.64574   0.08674   0.00000   0.07838   0.07842   2.72416
    R2        2.64464   0.02634   0.00000   0.02259   0.02253   2.66717
    R3        2.64487   0.05119   0.00000   0.04525   0.04524   2.69012
    R4        2.64482   0.03261   0.00000   0.02771   0.02762   2.67244
    R5        2.64496   0.04619   0.00000   0.04079   0.04076   2.68573
    R6        2.64766   0.07597   0.00000   0.06736   0.06744   2.71511
    R7        2.64633   0.07421   0.00000   0.06210   0.06203   2.70837
    R8        2.64554   0.07804   0.00000   0.06958   0.06967   2.71520
    R9        2.64525   0.01677   0.00000   0.01537   0.01550   2.66074
   R10        2.64464   0.02634   0.00000   0.02259   0.02253   2.66717
   R11        2.64643   0.07422   0.00000   0.06300   0.06295   2.70938
   R12        2.64574   0.08674   0.00000   0.07838   0.07842   2.72416
   R13        2.64487   0.05119   0.00000   0.04525   0.04524   2.69012
   R14        2.64482   0.03261   0.00000   0.02771   0.02762   2.67244
   R15        2.64496   0.04619   0.00000   0.04079   0.04076   2.68573
   R16        2.64766   0.07597   0.00000   0.06736   0.06744   2.71511
   R17        2.64633   0.07421   0.00000   0.06210   0.06203   2.70837
   R18        2.64554   0.07804   0.00000   0.06958   0.06967   2.71520
   R19        2.64525   0.01677   0.00000   0.01537   0.01550   2.66074
   R20        2.64643   0.07422   0.00000   0.06300   0.06295   2.70938
   R21        2.64602   0.06111   0.00000   0.05509   0.05516   2.70118
   R22        2.64653   0.06315   0.00000   0.05316   0.05315   2.69968
   R23        2.64689   0.06667   0.00000   0.06050   0.06059   2.70748
   R24        2.64548   0.06027   0.00000   0.05099   0.05096   2.69644
   R25        2.64562   0.06054   0.00000   0.04850   0.04835   2.69397
   R26        2.64689   0.06667   0.00000   0.06050   0.06059   2.70748
   R27        2.64548   0.06027   0.00000   0.05099   0.05096   2.69644
   R28        2.64602   0.06111   0.00000   0.05509   0.05516   2.70118
   R29        2.64653   0.06315   0.00000   0.05316   0.05315   2.69968
   R30        2.64562   0.06054   0.00000   0.04850   0.04835   2.69397
    A1        1.88560   0.00184   0.00000   0.00170   0.00168   1.88728
    A2        1.88543   0.00048   0.00000   0.00059   0.00064   1.88607
    A3        1.88515  -0.00826   0.00000  -0.01407  -0.01410   1.87105
    A4        1.88482   0.00194   0.00000   0.00187   0.00186   1.88668
    A5        1.88473   0.00149   0.00000   0.00237   0.00243   1.88716
    A6        1.88599  -0.00871   0.00000  -0.01481  -0.01484   1.87115
    A7        1.88448   0.00428   0.00000   0.00804   0.00805   1.89253
    A8        1.88528  -0.00150   0.00000  -0.00343  -0.00348   1.88180
    A9        1.88422  -0.00060   0.00000  -0.00078  -0.00072   1.88350
   A10        1.88528  -0.00336   0.00000  -0.00419  -0.00421   1.88107
   A11        1.88466   0.00110   0.00000   0.00217   0.00221   1.88687
   A12        1.88498   0.00254   0.00000   0.00475   0.00479   1.88977
   A13        1.88504   0.00296   0.00000   0.00558   0.00559   1.89063
   A14        1.88472  -0.00117   0.00000  -0.00181  -0.00176   1.88297
   A15        1.88438  -0.00208   0.00000  -0.00458  -0.00462   1.87976
   A16        1.88560   0.00184   0.00000   0.00170   0.00168   1.88728
   A17        1.88515  -0.00826   0.00000  -0.01407  -0.01410   1.87105
   A18        1.88543   0.00048   0.00000   0.00059   0.00064   1.88607
   A19        1.88482   0.00194   0.00000   0.00187   0.00186   1.88668
   A20        1.88473   0.00149   0.00000   0.00237   0.00243   1.88716
   A21        1.88599  -0.00871   0.00000  -0.01481  -0.01484   1.87115
   A22        1.88448   0.00428   0.00000   0.00804   0.00805   1.89253
   A23        1.88528  -0.00150   0.00000  -0.00343  -0.00348   1.88180
   A24        1.88422  -0.00060   0.00000  -0.00078  -0.00072   1.88350
   A25        1.88528  -0.00336   0.00000  -0.00419  -0.00421   1.88107
   A26        1.88466   0.00110   0.00000   0.00217   0.00221   1.88687
   A27        1.88498   0.00254   0.00000   0.00475   0.00479   1.88977
   A28        1.88504   0.00296   0.00000   0.00558   0.00559   1.89063
   A29        1.88438  -0.00208   0.00000  -0.00458  -0.00462   1.87976
   A30        1.88472  -0.00117   0.00000  -0.00181  -0.00176   1.88297
   A31        1.88500   0.00923   0.00000   0.01679   0.01681   1.90181
   A32        1.88482  -0.00582   0.00000  -0.00798  -0.00799   1.87684
   A33        1.88508   0.00191   0.00000   0.00393   0.00397   1.88905
   A34        1.88460  -0.00646   0.00000  -0.01304  -0.01319   1.87141
   A35        1.88516  -0.00531   0.00000  -0.01109  -0.01123   1.87393
   A36        1.88473  -0.00388   0.00000  -0.00856  -0.00865   1.87608
   A37        1.88448   0.00864   0.00000   0.01568   0.01571   1.90019
   A38        1.88503  -0.00685   0.00000  -0.00979  -0.00980   1.87523
   A39        1.88475   0.00251   0.00000   0.00483   0.00488   1.88963
   A40        1.88504   0.00560   0.00000   0.01029   0.01031   1.89534
   A41        1.88531   0.00255   0.00000   0.00341   0.00337   1.88868
   A42        1.88556  -0.00096   0.00000  -0.00126  -0.00129   1.88426
   A43        1.88443   0.00490   0.00000   0.00895   0.00896   1.89338
   A44        1.88525   0.00258   0.00000   0.00338   0.00331   1.88856
   A45        1.88466   0.00041   0.00000   0.00106   0.00102   1.88568
   A46        1.88448   0.00864   0.00000   0.01568   0.01571   1.90019
   A47        1.88503  -0.00685   0.00000  -0.00979  -0.00980   1.87523
   A48        1.88475   0.00251   0.00000   0.00483   0.00488   1.88963
   A49        1.88516  -0.00531   0.00000  -0.01109  -0.01123   1.87393
   A50        1.88460  -0.00646   0.00000  -0.01304  -0.01319   1.87141
   A51        1.88473  -0.00388   0.00000  -0.00856  -0.00865   1.87608
   A52        1.88500   0.00923   0.00000   0.01679   0.01681   1.90181
   A53        1.88482  -0.00582   0.00000  -0.00798  -0.00799   1.87684
   A54        1.88508   0.00191   0.00000   0.00393   0.00397   1.88905
   A55        1.88443   0.00490   0.00000   0.00895   0.00896   1.89338
   A56        1.88525   0.00258   0.00000   0.00338   0.00331   1.88856
   A57        1.88466   0.00041   0.00000   0.00106   0.00102   1.88568
   A58        1.88504   0.00560   0.00000   0.01029   0.01031   1.89534
   A59        1.88531   0.00255   0.00000   0.00341   0.00337   1.88868
   A60        1.88556  -0.00096   0.00000  -0.00126  -0.00129   1.88426
    D1        2.03555  -0.00799   0.00000  -0.01387  -0.01388   2.02168
    D2        0.00008   0.00045   0.00000   0.00130   0.00131   0.00139
    D3        0.00029   0.00051   0.00000   0.00148   0.00148   0.00177
    D4       -2.03518   0.00895   0.00000   0.01665   0.01667  -2.01851
    D5       -2.03456   0.00024   0.00000   0.00039   0.00037  -2.03420
    D6       -0.00065  -0.00067   0.00000  -0.00122  -0.00121  -0.00186
    D7        0.00088  -0.00258   0.00000  -0.00544  -0.00539  -0.00451
    D8        2.03479  -0.00350   0.00000  -0.00705  -0.00696   2.02783
    D9        2.03473   0.00354   0.00000   0.00738   0.00741   2.04214
   D10        0.00019  -0.00050   0.00000  -0.00187  -0.00186  -0.00168
   D11       -0.00082   0.00549   0.00000   0.01248   0.01247   0.01166
   D12       -2.03536   0.00145   0.00000   0.00323   0.00320  -2.03216
   D13       -2.03416  -0.00108   0.00000  -0.00202  -0.00205  -2.03621
   D14       -0.00066  -0.00032   0.00000  -0.00051  -0.00051  -0.00117
   D15        0.00050  -0.00289   0.00000  -0.00603  -0.00599  -0.00549
   D16        2.03400  -0.00214   0.00000  -0.00453  -0.00444   2.02955
   D17        2.03452   0.00384   0.00000   0.00789   0.00789   2.04241
   D18        0.00053  -0.00005   0.00000  -0.00088  -0.00089  -0.00036
   D19       -0.00020   0.00536   0.00000   0.01223   0.01220   0.01201
   D20       -2.03419   0.00147   0.00000   0.00345   0.00342  -2.03076
   D21        2.03389   0.00110   0.00000   0.00204   0.00205   2.03594
   D22       -0.00061  -0.00070   0.00000  -0.00248  -0.00252  -0.00313
   D23       -0.00030   0.00094   0.00000   0.00226   0.00229   0.00199
   D24       -2.03480  -0.00086   0.00000  -0.00226  -0.00228  -2.03708
   D25        0.00078   0.00002   0.00000  -0.00064  -0.00064   0.00013
   D26       -2.03319  -0.00440   0.00000  -0.00835  -0.00839  -2.04158
   D27        2.03445   0.00394   0.00000   0.00660   0.00660   2.04105
   D28        0.00048  -0.00047   0.00000  -0.00111  -0.00114  -0.00066
   D29       -2.03368   0.00046   0.00000   0.00086   0.00086  -2.03282
   D30        0.00001  -0.00105   0.00000  -0.00254  -0.00256  -0.00255
   D31        0.00061   0.00132   0.00000   0.00370   0.00375   0.00436
   D32        2.03430  -0.00018   0.00000   0.00030   0.00033   2.03462
   D33        0.00049   0.00400   0.00000   0.01003   0.00993   0.01042
   D34        2.03458  -0.00674   0.00000  -0.01270  -0.01256   2.02202
   D35       -2.03420   0.00604   0.00000   0.01132   0.01119  -2.02301
   D36       -0.00010  -0.00470   0.00000  -0.01141  -0.01131  -0.01141
   D37        2.03456  -0.00024   0.00000  -0.00039  -0.00037   2.03420
   D38       -0.00088   0.00258   0.00000   0.00544   0.00539   0.00451
   D39        0.00065   0.00067   0.00000   0.00122   0.00121   0.00186
   D40       -2.03479   0.00350   0.00000   0.00705   0.00696  -2.02783
   D41       -2.03510  -0.00242   0.00000  -0.00388  -0.00390  -2.03900
   D42        0.00029   0.00075   0.00000   0.00186   0.00187   0.00216
   D43       -0.00097  -0.00065   0.00000  -0.00068  -0.00068  -0.00165
   D44        2.03441   0.00253   0.00000   0.00505   0.00510   2.03951
   D45       -2.03555   0.00799   0.00000   0.01387   0.01388  -2.02168
   D46       -0.00008  -0.00045   0.00000  -0.00130  -0.00131  -0.00139
   D47       -0.00029  -0.00051   0.00000  -0.00148  -0.00148  -0.00177
   D48        2.03518  -0.00895   0.00000  -0.01665  -0.01667   2.01851
   D49        0.00082  -0.00549   0.00000  -0.01248  -0.01247  -0.01166
   D50        2.03536  -0.00145   0.00000  -0.00323  -0.00320   2.03216
   D51       -2.03473  -0.00354   0.00000  -0.00738  -0.00741  -2.04214
   D52       -0.00019   0.00050   0.00000   0.00187   0.00186   0.00168
   D53        2.03416   0.00108   0.00000   0.00202   0.00205   2.03621
   D54        0.00066   0.00032   0.00000   0.00051   0.00051   0.00117
   D55       -0.00050   0.00289   0.00000   0.00603   0.00599   0.00549
   D56       -2.03400   0.00214   0.00000   0.00453   0.00444  -2.02955
   D57       -2.03452  -0.00384   0.00000  -0.00789  -0.00789  -2.04241
   D58       -0.00053   0.00005   0.00000   0.00088   0.00089   0.00036
   D59        0.00020  -0.00536   0.00000  -0.01223  -0.01220  -0.01201
   D60        2.03419  -0.00147   0.00000  -0.00345  -0.00342   2.03076
   D61       -2.03389  -0.00110   0.00000  -0.00204  -0.00205  -2.03594
   D62        0.00061   0.00070   0.00000   0.00248   0.00252   0.00313
   D63        0.00030  -0.00094   0.00000  -0.00226  -0.00229  -0.00199
   D64        2.03480   0.00086   0.00000   0.00226   0.00228   2.03708
   D65       -0.00078  -0.00002   0.00000   0.00064   0.00064  -0.00013
   D66        2.03319   0.00440   0.00000   0.00835   0.00839   2.04158
   D67       -2.03445  -0.00394   0.00000  -0.00660  -0.00660  -2.04105
   D68       -0.00048   0.00047   0.00000   0.00111   0.00114   0.00066
   D69        2.03368  -0.00046   0.00000  -0.00086  -0.00086   2.03282
   D70       -0.00001   0.00105   0.00000   0.00254   0.00256   0.00255
   D71       -0.00061  -0.00132   0.00000  -0.00370  -0.00375  -0.00436
   D72       -2.03430   0.00018   0.00000  -0.00030  -0.00033  -2.03462
   D73       -2.03458   0.00674   0.00000   0.01270   0.01256  -2.02202
   D74       -0.00049  -0.00400   0.00000  -0.01003  -0.00993  -0.01042
   D75        0.00010   0.00470   0.00000   0.01141   0.01131   0.01141
   D76        2.03420  -0.00604   0.00000  -0.01132  -0.01119   2.02301
   D77        0.00097   0.00065   0.00000   0.00068   0.00068   0.00165
   D78       -2.03441  -0.00253   0.00000  -0.00505  -0.00510  -2.03951
   D79        2.03510   0.00242   0.00000   0.00388   0.00390   2.03900
   D80       -0.00029  -0.00075   0.00000  -0.00186  -0.00187  -0.00216
   D81        0.00044  -0.00630   0.00000  -0.01476  -0.01480  -0.01435
   D82       -2.03394   0.00537   0.00000   0.00961   0.00941  -2.02452
   D83        2.03482  -0.00728   0.00000  -0.01325  -0.01313   2.02169
   D84        0.00044   0.00439   0.00000   0.01112   0.01108   0.01152
   D85       -0.00059   0.00030   0.00000   0.00155   0.00156   0.00097
   D86        2.03376   0.00612   0.00000   0.01077   0.01077   2.04453
   D87       -2.03509  -0.00850   0.00000  -0.01606  -0.01607  -2.05116
   D88       -0.00074  -0.00267   0.00000  -0.00684  -0.00686  -0.00760
   D89        0.00018   0.00579   0.00000   0.01376   0.01380   0.01398
   D90       -2.03399   0.00799   0.00000   0.01449   0.01439  -2.01960
   D91        2.03419  -0.00663   0.00000  -0.01189  -0.01172   2.02248
   D92        0.00002  -0.00444   0.00000  -0.01116  -0.01113  -0.01111
   D93        0.00093   0.00036   0.00000  -0.00013  -0.00014   0.00078
   D94       -2.03429  -0.00509   0.00000  -0.00890  -0.00890  -2.04319
   D95        2.03474   0.00824   0.00000   0.01570   0.01571   2.05045
   D96       -0.00048   0.00279   0.00000   0.00693   0.00695   0.00647
   D97       -0.00047  -0.00017   0.00000  -0.00046  -0.00046  -0.00093
   D98       -2.03429  -0.00751   0.00000  -0.01330  -0.01331  -2.04760
   D99        2.03457   0.00726   0.00000   0.01278   0.01279   2.04736
   D100       0.00075  -0.00007   0.00000  -0.00006  -0.00007   0.00069
   D101      -0.00018  -0.00579   0.00000  -0.01376  -0.01380  -0.01398
   D102      -2.03419   0.00663   0.00000   0.01189   0.01172  -2.02248
   D103       2.03399  -0.00799   0.00000  -0.01449  -0.01439   2.01960
   D104      -0.00002   0.00444   0.00000   0.01116   0.01113   0.01111
   D105      -0.00093  -0.00036   0.00000   0.00013   0.00014  -0.00078
   D106       2.03429   0.00509   0.00000   0.00890   0.00890   2.04319
   D107      -2.03474  -0.00824   0.00000  -0.01570  -0.01571  -2.05045
   D108       0.00048  -0.00279   0.00000  -0.00693  -0.00695  -0.00647
   D109      -0.00044   0.00630   0.00000   0.01476   0.01480   0.01435
   D110      -2.03482   0.00728   0.00000   0.01325   0.01313  -2.02169
   D111       2.03394  -0.00537   0.00000  -0.00961  -0.00941   2.02452
   D112      -0.00044  -0.00439   0.00000  -0.01112  -0.01108  -0.01152
   D113       0.00059  -0.00030   0.00000  -0.00155  -0.00156  -0.00097
   D114      -2.03376  -0.00612   0.00000  -0.01077  -0.01077  -2.04453
   D115       2.03509   0.00850   0.00000   0.01606   0.01607   2.05116
   D116       0.00074   0.00267   0.00000   0.00684   0.00686   0.00760
   D117       0.00047   0.00017   0.00000   0.00046   0.00046   0.00093
   D118      -2.03457  -0.00726   0.00000  -0.01278  -0.01279  -2.04736
   D119       2.03429   0.00751   0.00000   0.01330   0.01331   2.04760
   D120      -0.00075   0.00007   0.00000   0.00006   0.00007  -0.00069
         Item               Value     Threshold  Converged?
 Maximum Force            0.086741     0.000450     NO 
 RMS     Force            0.023573     0.000300     NO 
 Maximum Displacement     0.101637     0.001800     NO 
 RMS     Displacement     0.024120     0.001200     NO 
 Predicted change in Energy=-8.486876D-02
 GradGradGradGradGradGradGradGradGradGradGradGradGradGradGradGradGradGrad

                          Input orientation:                          
 ---------------------------------------------------------------------
 Center     Atomic      Atomic             Coordinates (Angstroms)
 Number     Number       Type             X           Y           Z
 ---------------------------------------------------------------------
      1          6           0        1.147088    1.636840    0.195270
      2          6           0        1.009104    0.947436    1.453754
      3          6           0        1.479779   -0.375286    1.284012
      4          6           0        0.382917   -1.278615    1.496622
      5          6           0        0.143800   -1.976249    0.263500
      6          6           0       -1.147088   -1.636840   -0.195270
      7          6           0       -1.009104   -0.947436   -1.453754
      8          6           0       -1.479779    0.375286   -1.284012
      9          6           0       -0.382917    1.278615   -1.496622
     10          6           0       -0.143800    1.976249   -0.263500
     11          6           0        1.703352    0.727031   -0.747762
     12          6           0        0.760278    0.515024   -1.800784
     13          6           0        0.375583   -0.864583   -1.763036
     14          6           0        1.089353   -1.499106   -0.702873
     15          6           0        1.910107   -0.516577   -0.075743
     16          6           0       -0.375583    0.864583    1.763036
     17          6           0       -0.760278   -0.515024    1.800784
     18          6           0       -1.703352   -0.727031    0.747762
     19          6           0       -1.910107    0.516577    0.075743
     20          6           0       -1.089353    1.499106    0.702873
 ---------------------------------------------------------------------
                    Distance matrix (angstroms):
                    1          2          3          4          5
     1  C    0.000000
     2  C    1.441562   0.000000
     3  C    2.311859   1.414192   0.000000
     4  C    3.282887   2.312845   1.436772   0.000000
     5  C    3.750420   3.273131   2.321501   1.436823   0.000000
     6  C    4.016558   3.747923   3.268061   2.309055   1.411404
     7  C    3.747923   4.014637   3.743963   3.279043   2.310110
     8  C    3.268061   3.743963   3.989623   3.733222   3.249695
     9  C    2.309055   3.279043   3.733222   4.010665   3.737592
    10  C    1.411404   2.310110   3.249695   3.737592   3.997835
    11  C    1.423549   2.318886   2.322325   3.286856   3.280636
    12  C    2.322138   3.292554   3.290334   3.772589   3.293593
    13  C    3.269144   3.745999   3.277677   3.285856   2.323009
    14  C    3.262538   3.262368   2.315840   2.320656   1.433740
    15  C    2.300620   2.300978   1.433206   2.320634   2.316369
    16  C    2.317929   1.421224   2.282347   2.289017   3.254028
    17  C    3.293363   2.321623   2.303137   1.408006   2.305597
    18  C    3.744081   3.264918   3.247093   2.284196   2.281891
    19  C    3.258176   3.256739   3.707649   3.240303   3.235424
    20  C    2.297454   2.296015   3.232879   3.242429   3.713733
                    6          7          8          9         10
     6  C    0.000000
     7  C    1.441562   0.000000
     8  C    2.311859   1.414192   0.000000
     9  C    3.282887   2.312845   1.436772   0.000000
    10  C    3.750420   3.273131   2.321501   1.436823   0.000000
    11  C    3.744081   3.264918   3.247093   2.284196   2.281891
    12  C    3.293363   2.321623   2.303137   1.408006   2.305597
    13  C    2.317929   1.421224   2.282347   2.289017   3.254028
    14  C    2.297454   2.296015   3.232879   3.242429   3.713733
    15  C    3.258176   3.256739   3.707649   3.240303   3.235424
    16  C    3.269144   3.745999   3.277677   3.285856   2.323009
    17  C    2.322138   3.292554   3.290334   3.772589   3.293593
    18  C    1.423549   2.318886   2.322325   3.286856   3.280636
    19  C    2.300620   2.300978   1.433206   2.320634   2.316369
    20  C    3.262538   3.262368   2.315840   2.320656   1.433740
                   11         12         13         14         15
    11  C    0.000000
    12  C    1.429402   0.000000
    13  C    2.308028   1.432736   0.000000
    14  C    2.309697   2.317417   1.426896   0.000000
    15  C    1.428607   2.315615   2.307126   1.425585   0.000000
    16  C    3.262667   3.756752   3.998432   3.716688   3.242390
    17  C    3.755964   4.042819   3.756752   3.264636   3.263788
    18  C    3.994562   3.755964   3.262667   3.240315   3.712080
    19  C    3.712080   3.263788   3.242390   3.696752   3.960352
    20  C    3.240315   3.264636   3.716688   3.963856   3.696752
                   16         17         18         19         20
    16  C    0.000000
    17  C    1.432736   0.000000
    18  C    2.308028   1.429402   0.000000
    19  C    2.307126   2.315615   1.428607   0.000000
    20  C    1.426896   2.317417   2.309697   1.425585   0.000000
 Symmetry turned off by external request.
 Stoichiometry    C20
 Framework group  CI[X(C20)]
 Deg. of freedom    27
 Full point group                 CI      NOp   2
 Rotational constants (GHZ):           0.7970169           0.7922074           0.7810919
 Standard basis: 6-31G (6D, 7F)
   180 basis functions,   440 primitive gaussians,   180 cartesian basis functions
    60 alpha electrons       60 beta electrons
       nuclear repulsion energy      1446.3408310769 Hartrees.
 NAtoms=   20 NActive=   20 NUniq=   20 SFac= 1.00D+00 NAtFMM=   60 NAOKFM=F Big=F
 Integral buffers will be    131072 words long.
 Raffenetti 2 integral format.
 Two-electron integral symmetry is turned off.
 Nuclear repulsion after empirical dispersion term =     1446.3176187292 Hartrees.
 One-electron integrals computed using PRISM.
 NBasis=   180 RedAO= T EigKep=  8.17D-04  NBF=   180
 NBsUse=   180 1.00D-06 EigRej= -1.00D+00 NBFU=   180
 Initial guess from the checkpoint file:  "C20_Ih_1.chk"
 B after Tr=    -0.000000    0.000000    0.000000
         Rot=    1.000000    0.000000    0.000000    0.000000 Ang=   0.00 deg.
 ExpMin= 1.69D-01 ExpMax= 3.05D+03 ExpMxC= 4.57D+02 IAcc=2 IRadAn=         4 AccDes= 0.00D+00
 Harris functional with IExCor=  402 and IRadAn=       4 diagonalized for initial guess.
 HarFok:  IExCor=  402 AccDes= 0.00D+00 IRadAn=         4 IDoV= 1 UseB2=F ITyADJ=14
 ICtDFT=  3500011 ScaDFX=  1.000000  1.000000  1.000000  1.000000
 FoFCou: FMM=F IPFlag=           0 FMFlag=      100000 FMFlg1=           0
         NFxFlg=           0 DoJE=T BraDBF=F KetDBF=T FulRan=T
         wScrn=  0.000000 ICntrl=       500 IOpCl=  0 I1Cent=   200000004 NGrid=           0
         NMat0=    1 NMatS0=      1 NMatT0=    0 NMatD0=    1 NMtDS0=    0 NMtDT0=    0
 Symmetry not used in FoFCou.
 Keep R1 ints in memory in canonical form, NReq=136724827.
 Requested convergence on RMS density matrix=1.00D-08 within 128 cycles.
 Requested convergence on MAX density matrix=1.00D-06.
 Requested convergence on             energy=1.00D-06.
 No special actions if energy rises.
 Integral accuracy reduced to 1.0D-05 until final iterations.
 Initial convergence to 1.0D-05 achieved.  Increase integral accuracy.
 SCF Done:  E(RB3LYP) =  -761.180241036     A.U. after   27 cycles
            NFock= 27  Conv=0.19D-08     -V/T= 2.0019
 Calling FoFJK, ICntrl=      2127 FMM=F ISym2X=0 I1Cent= 0 IOpClX= 0 NMat=1 NMatS=1 NMatT=0.
 -------------------------------------------------------------------
 Center     Atomic                   Forces (Hartrees/Bohr)
 Number     Number              X              Y              Z
 -------------------------------------------------------------------
      1        6           0.018738006    0.047756251   -0.020623461
      2        6           0.013190186    0.003556069    0.050597044
      3        6           0.021763421    0.010823203    0.018088453
      4        6          -0.018664927   -0.010651931    0.047859569
      5        6          -0.015855802   -0.033857507   -0.010701812
      6        6          -0.018738006   -0.047756251    0.020623461
      7        6          -0.013190186   -0.003556069   -0.050597045
      8        6          -0.021763420   -0.010823203   -0.018088452
      9        6           0.018664927    0.010651930   -0.047859569
     10        6           0.015855802    0.033857507    0.010701812
     11        6           0.017334967    0.014345366    0.006009478
     12        6          -0.002169595    0.041623283   -0.054325151
     13        6          -0.012477237   -0.024349270   -0.016473489
     14        6           0.011575380   -0.018098739   -0.010522049
     15        6           0.024154136   -0.005199804   -0.000307817
     16        6           0.012477237    0.024349270    0.016473490
     17        6           0.002169594   -0.041623283    0.054325151
     18        6          -0.017334967   -0.014345366   -0.006009478
     19        6          -0.024154136    0.005199804    0.000307816
     20        6          -0.011575380    0.018098739    0.010522049
 -------------------------------------------------------------------
 Cartesian Forces:  Max     0.054325151 RMS     0.024779032

 GradGradGradGradGradGradGradGradGradGradGradGradGradGradGradGradGradGrad
 Berny optimization.
 Using GEDIIS/GDIIS optimizer.
 FormGI is forming the generalized inverse of G from B-inverse, IUseBI=4.
 Internal  Forces:  Max     0.049571492 RMS     0.013235724
 Search for a local minimum.
 Step number   2 out of a maximum of  120
 All quantities printed in internal units (Hartrees-Bohrs-Radians)
 Mixed Optimization -- RFO/linear search
 Update second derivatives using D2CorX and points    1    2
 DE= -8.17D-02 DEPred=-8.49D-02 R= 9.63D-01
 TightC=F SS=  1.41D+00  RLast= 3.14D-01 DXNew= 5.0454D-01 9.4063D-01
 Trust test= 9.63D-01 RLast= 3.14D-01 DXMaxT set to 5.05D-01
 ITU=  1  0
 Use linear search instead of GDIIS.
     Eigenvalues ---    0.05953   0.05968   0.06005   0.06057   0.06076
     Eigenvalues ---    0.06078   0.06252   0.07765   0.07778   0.07787
     Eigenvalues ---    0.07883   0.07909   0.07977   0.07986   0.08021
     Eigenvalues ---    0.08027   0.08289   0.08423   0.08469   0.11494
     Eigenvalues ---    0.11735   0.11818   0.12028   0.12248   0.17881
     Eigenvalues ---    0.17973   0.18012   0.18206   0.18217   0.23590
     Eigenvalues ---    0.23609   0.23657   0.23881   0.36470   0.36828
     Eigenvalues ---    0.36932   0.38152   0.38968   0.39179   0.39202
     Eigenvalues ---    0.40868   0.41066   0.41106   0.41221   0.41260
     Eigenvalues ---    0.41303   0.45556   0.45562   0.45596   0.45614
     Eigenvalues ---    0.45636   0.45641   0.45650   0.59820
 RFO step:  Lambda=-2.29128322D-02 EMin= 5.95259277D-02
 Quartic linear search produced a step of  1.28099.
 Iteration  1 RMS(Cart)=  0.04294852 RMS(Int)=  0.00106912
 Iteration  2 RMS(Cart)=  0.00076602 RMS(Int)=  0.00059036
 Iteration  3 RMS(Cart)=  0.00000076 RMS(Int)=  0.00059036
 Variable       Old X    -DE/DX   Delta X   Delta X   Delta X     New X
                                 (Linear)    (Quad)   (Total)
    R1        2.72416   0.04957   0.10046   0.04124   0.14184   2.86600
    R2        2.66717   0.01317   0.02886   0.00167   0.03014   2.69731
    R3        2.69012   0.02105   0.05796  -0.02678   0.03072   2.72084
    R4        2.67244   0.01969   0.03538   0.01525   0.04991   2.72235
    R5        2.68573   0.01543   0.05222  -0.04055   0.01105   2.69678
    R6        2.71511   0.04191   0.08639   0.01691   0.10377   2.81888
    R7        2.70837   0.03515   0.07947  -0.03245   0.04684   2.75521
    R8        2.71520   0.04555   0.08924   0.03419   0.12393   2.83914
    R9        2.66074   0.00040   0.01985  -0.03709  -0.01581   2.64494
   R10        2.66717   0.01317   0.02886   0.00167   0.03014   2.69731
   R11        2.70938   0.03495   0.08063  -0.02727   0.05318   2.76255
   R12        2.72416   0.04957   0.10046   0.04124   0.14184   2.86600
   R13        2.69012   0.02105   0.05796  -0.02678   0.03072   2.72084
   R14        2.67244   0.01969   0.03538   0.01525   0.04991   2.72235
   R15        2.68573   0.01543   0.05222  -0.04055   0.01105   2.69678
   R16        2.71511   0.04191   0.08639   0.01691   0.10377   2.81888
   R17        2.70837   0.03515   0.07947  -0.03245   0.04684   2.75521
   R18        2.71520   0.04555   0.08924   0.03419   0.12393   2.83914
   R19        2.66074   0.00040   0.01985  -0.03709  -0.01581   2.64494
   R20        2.70938   0.03495   0.08063  -0.02727   0.05318   2.76255
   R21        2.70118   0.04093   0.07066   0.04816   0.11933   2.82051
   R22        2.69968   0.03516   0.06808  -0.00595   0.06222   2.76190
   R23        2.70748   0.04570   0.07761   0.06220   0.14025   2.84773
   R24        2.69644   0.03284   0.06529  -0.00451   0.06036   2.75681
   R25        2.69397   0.03792   0.06193   0.00753   0.06878   2.76274
   R26        2.70748   0.04570   0.07761   0.06220   0.14025   2.84773
   R27        2.69644   0.03284   0.06529  -0.00451   0.06036   2.75681
   R28        2.70118   0.04093   0.07066   0.04816   0.11933   2.82051
   R29        2.69968   0.03516   0.06808  -0.00595   0.06222   2.76190
   R30        2.69397   0.03792   0.06193   0.00753   0.06878   2.76274
    A1        1.88728   0.00076   0.00215  -0.00231  -0.00041   1.88687
    A2        1.88607  -0.00058   0.00082  -0.01720  -0.01629   1.86978
    A3        1.87105  -0.00619  -0.01807  -0.03512  -0.05417   1.81688
    A4        1.88668   0.00072   0.00239  -0.00221   0.00042   1.88711
    A5        1.88716   0.00052   0.00311  -0.00643  -0.00318   1.88399
    A6        1.87115  -0.00633  -0.01901  -0.03128  -0.05099   1.82016
    A7        1.89253   0.00498   0.01031   0.04590   0.05610   1.94863
    A8        1.88180  -0.00195  -0.00445  -0.00655  -0.01116   1.87064
    A9        1.88350  -0.00037  -0.00092   0.00249   0.00196   1.88546
   A10        1.88107  -0.00178  -0.00539  -0.01316  -0.01902   1.86205
   A11        1.88687  -0.00147   0.00283  -0.03844  -0.03629   1.85058
   A12        1.88977  -0.00010   0.00613  -0.02843  -0.02299   1.86678
   A13        1.89063   0.00391   0.00716   0.03902   0.04631   1.93694
   A14        1.88297  -0.00095  -0.00225  -0.00144  -0.00314   1.87982
   A15        1.87976  -0.00266  -0.00592  -0.01331  -0.01899   1.86077
   A16        1.88728   0.00076   0.00215  -0.00231  -0.00041   1.88687
   A17        1.87105  -0.00619  -0.01807  -0.03512  -0.05417   1.81688
   A18        1.88607  -0.00058   0.00082  -0.01720  -0.01629   1.86978
   A19        1.88668   0.00072   0.00239  -0.00221   0.00042   1.88711
   A20        1.88716   0.00052   0.00311  -0.00643  -0.00318   1.88399
   A21        1.87115  -0.00633  -0.01901  -0.03128  -0.05099   1.82016
   A22        1.89253   0.00498   0.01031   0.04590   0.05610   1.94863
   A23        1.88180  -0.00195  -0.00445  -0.00655  -0.01116   1.87064
   A24        1.88350  -0.00037  -0.00092   0.00249   0.00196   1.88546
   A25        1.88107  -0.00178  -0.00539  -0.01316  -0.01902   1.86205
   A26        1.88687  -0.00147   0.00283  -0.03844  -0.03629   1.85058
   A27        1.88977  -0.00010   0.00613  -0.02843  -0.02299   1.86678
   A28        1.89063   0.00391   0.00716   0.03902   0.04631   1.93694
   A29        1.87976  -0.00266  -0.00592  -0.01331  -0.01899   1.86077
   A30        1.88297  -0.00095  -0.00225  -0.00144  -0.00314   1.87982
   A31        1.90181   0.00575   0.02153   0.02061   0.04190   1.94371
   A32        1.87684  -0.00167  -0.01023   0.01386   0.00373   1.88057
   A33        1.88905   0.00025   0.00509  -0.00731  -0.00214   1.88691
   A34        1.87141  -0.00344  -0.01690   0.00375  -0.01326   1.85815
   A35        1.87393  -0.00197  -0.01438   0.01657   0.00192   1.87585
   A36        1.87608  -0.00312  -0.01108  -0.00906  -0.02007   1.85600
   A37        1.90019   0.00473   0.02013   0.00721   0.02740   1.92759
   A38        1.87523  -0.00287  -0.01255   0.00143  -0.01100   1.86423
   A39        1.88963   0.00052   0.00625  -0.01092  -0.00423   1.88541
   A40        1.89534   0.00424   0.01320   0.02062   0.03348   1.92882
   A41        1.88868   0.00130   0.00431   0.00369   0.00765   1.89632
   A42        1.88426   0.00071  -0.00166   0.01300   0.01095   1.89521
   A43        1.89338   0.00348   0.01147   0.01210   0.02328   1.91666
   A44        1.88856   0.00180   0.00425   0.00849   0.01223   1.90079
   A45        1.88568   0.00161   0.00131   0.01436   0.01533   1.90101
   A46        1.90019   0.00473   0.02013   0.00721   0.02740   1.92759
   A47        1.87523  -0.00287  -0.01255   0.00143  -0.01100   1.86423
   A48        1.88963   0.00052   0.00625  -0.01092  -0.00423   1.88541
   A49        1.87393  -0.00197  -0.01438   0.01657   0.00192   1.87585
   A50        1.87141  -0.00344  -0.01690   0.00375  -0.01326   1.85815
   A51        1.87608  -0.00312  -0.01108  -0.00906  -0.02007   1.85600
   A52        1.90181   0.00575   0.02153   0.02061   0.04190   1.94371
   A53        1.87684  -0.00167  -0.01023   0.01386   0.00373   1.88057
   A54        1.88905   0.00025   0.00509  -0.00731  -0.00214   1.88691
   A55        1.89338   0.00348   0.01147   0.01210   0.02328   1.91666
   A56        1.88856   0.00180   0.00425   0.00849   0.01223   1.90079
   A57        1.88568   0.00161   0.00131   0.01436   0.01533   1.90101
   A58        1.89534   0.00424   0.01320   0.02062   0.03348   1.92882
   A59        1.88868   0.00130   0.00431   0.00369   0.00765   1.89632
   A60        1.88426   0.00071  -0.00166   0.01300   0.01095   1.89521
    D1        2.02168  -0.00691  -0.01777  -0.05112  -0.06908   1.95260
    D2        0.00139  -0.00013   0.00168  -0.00990  -0.00824  -0.00685
    D3        0.00177   0.00026   0.00190   0.00026   0.00209   0.00387
    D4       -2.01851   0.00704   0.02135   0.04148   0.06293  -1.95558
    D5       -2.03420  -0.00017   0.00047  -0.00944  -0.00956  -2.04376
    D6       -0.00186  -0.00066  -0.00155   0.00218   0.00051  -0.00135
    D7       -0.00451  -0.00367  -0.00690  -0.04891  -0.05511  -0.05962
    D8        2.02783  -0.00416  -0.00892  -0.03729  -0.04504   1.98279
    D9        2.04214   0.00245   0.00949   0.00754   0.01829   2.06043
   D10       -0.00168   0.00002  -0.00239  -0.00234  -0.00447  -0.00615
   D11        0.01166   0.00505   0.01598   0.03713   0.05247   0.06412
   D12       -2.03216   0.00262   0.00410   0.02725   0.02971  -2.00246
   D13       -2.03621  -0.00156  -0.00263  -0.02169  -0.02528  -2.06150
   D14       -0.00117  -0.00042  -0.00065   0.00191   0.00117  -0.00000
   D15       -0.00549  -0.00387  -0.00767  -0.04653  -0.05410  -0.05959
   D16        2.02955  -0.00273  -0.00569  -0.02293  -0.02765   2.00190
   D17        2.04241   0.00242   0.01011   0.00537   0.01579   2.05821
[...]
 ! D100  D(13,14,15,11)          1.2648         -DE/DX =    0.0                 !
 ! D101  D(2,16,17,4)           -0.0644         -DE/DX =    0.0                 !
 ! D102  D(2,16,17,18)        -114.224          -DE/DX =    0.0                 !
 ! D103  D(20,16,17,4)         114.2059         -DE/DX =   -0.0001              !
 ! D104  D(20,16,17,18)          0.0464         -DE/DX =    0.0                 !
 ! D105  D(2,16,20,10)          -3.7797         -DE/DX =    0.0                 !
 ! D106  D(2,16,20,19)         116.0603         -DE/DX =    0.0                 !
 ! D107  D(17,16,20,10)       -119.1            -DE/DX =    0.0                 !
 ! D108  D(17,16,20,19)          0.7401         -DE/DX =    0.0                 !
 ! D109  D(4,17,18,6)            3.8013         -DE/DX =    0.0                 !
 ! D110  D(4,17,18,19)        -115.9959         -DE/DX =    0.0                 !
 ! D111  D(16,17,18,6)         118.9812         -DE/DX =    0.0                 !
 ! D112  D(16,17,18,19)         -0.816          -DE/DX =    0.0                 !
 ! D113  D(6,18,19,8)           -1.2572         -DE/DX =    0.0                 !
 ! D114  D(6,18,19,20)        -119.6322         -DE/DX =   -0.0001              !
 ! D115  D(17,18,19,8)         119.6706         -DE/DX =    0.0                 !
 ! D116  D(17,18,19,20)          1.2956         -DE/DX =    0.0                 !
 ! D117  D(8,19,20,10)           1.3083         -DE/DX =    0.0                 !
 ! D118  D(8,19,20,16)        -119.6508         -DE/DX =    0.0                 !
 ! D119  D(18,19,20,10)        119.6943         -DE/DX =    0.0                 !
 ! D120  D(18,19,20,16)         -1.2648         -DE/DX =    0.0                 !
 --------------------------------------------------------------------------------
 GradGradGradGradGradGradGradGradGradGradGradGradGradGradGradGradGradGrad

                          Input orientation:                          
 ---------------------------------------------------------------------
 Center     Atomic      Atomic             Coordinates (Angstroms)
 Number     Number       Type             X           Y           Z
 ---------------------------------------------------------------------
      1          6           0        1.165941    1.722788    0.195877
      2          6           0        1.019886    0.994840    1.532603
      3          6           0        1.466956   -0.379660    1.309849
      4          6           0        0.384809   -1.326017    1.570757
      5          6           0        0.128716   -2.071418    0.259986
      6          6           0       -1.165941   -1.722788   -0.195877
      7          6           0       -1.019886   -0.994840   -1.532603
      8          6           0       -1.466956    0.379660   -1.309849
      9          6           0       -0.384809    1.326017   -1.570757
     10          6           0       -0.128716    2.071418   -0.259986
     11          6           0        1.695075    0.749644   -0.757072
     12          6           0        0.763876    0.551521   -1.866190
     13          6           0        0.359894   -0.921944   -1.840803
     14          6           0        1.070523   -1.532327   -0.718235
     15          6           0        1.893738   -0.519783   -0.074034
     16          6           0       -0.359894    0.921944    1.840803
     17          6           0       -0.763876   -0.551521    1.866190
     18          6           0       -1.695075   -0.749644    0.757072
     19          6           0       -1.893738    0.519783    0.074034
     20          6           0       -1.070523    1.532327    0.718235
 ---------------------------------------------------------------------
                    Distance matrix (angstroms):
                    1          2          3          4          5
     1  C    0.000000
     2  C    1.529077   0.000000
     3  C    2.398298   1.462444   0.000000
     4  C    3.434483   2.406483   1.461064   0.000000
     5  C    3.933949   3.437394   2.398988   1.529485   0.000000
     6  C    4.178893   3.892427   3.317130   2.383956   1.416153
     7  C    3.892427   4.185091   3.826534   3.422526   2.385725
     8  C    3.317130   3.826534   4.005899   3.825736   3.319388
     9  C    2.383956   3.422526   3.825736   4.182667   3.893314
    10  C    1.416153   2.385725   3.319388   3.893314   4.183269
    11  C    1.461199   2.399710   2.366332   3.382891   3.383235
    12  C    2.405337   3.437131   3.383584   3.934647   3.435675
    13  C    3.434005   3.935672   3.383233   3.435496   2.405837
    14  C    3.382378   3.384584   2.366205   2.398385   1.461006
    15  C    2.373113   2.374654   1.454960   2.373230   2.373699
    16  C    2.382290   1.415661   2.305096   2.383451   3.420225
    17  C    3.418570   2.384181   2.305573   1.416546   2.384680
    18  C    3.822731   3.318989   3.231237   2.306557   2.306598
    19  C    3.289940   3.292766   3.691951   3.292253   3.292297
    20  C    2.304540   2.306924   3.231796   3.318873   3.825591
                    6          7          8          9         10
     6  C    0.000000
     7  C    1.529077   0.000000
     8  C    2.398298   1.462444   0.000000
     9  C    3.434483   2.406483   1.461064   0.000000
    10  C    3.933949   3.437394   2.398988   1.529485   0.000000
    11  C    3.822731   3.318989   3.231237   2.306557   2.306597
    12  C    3.418570   2.384182   2.305573   1.416546   2.384680
    13  C    2.382290   1.415661   2.305096   2.383451   3.420225
    14  C    2.304540   2.306924   3.231796   3.318873   3.825591
    15  C    3.289940   3.292766   3.691951   3.292253   3.292297
    16  C    3.434005   3.935673   3.383233   3.435496   2.405836
    17  C    2.405337   3.437131   3.383585   3.934647   3.435675
    18  C    1.461199   2.399710   2.366332   3.382891   3.383235
    19  C    2.373113   2.374654   1.454960   2.373230   2.373699
    20  C    3.382378   3.384584   2.366205   2.398385   1.461006
                   11         12         13         14         15
    11  C    0.000000
    12  C    1.461687   0.000000
    13  C    2.398205   1.528053   0.000000
    14  C    2.366214   2.398803   1.462094   0.000000
    15  C    1.455147   2.374048   2.374002   1.455309   0.000000
    16  C    3.316856   3.891256   4.179981   3.823378   3.289990
    17  C    3.823738   4.181076   3.891256   3.317568   3.290652
    18  C    4.004199   3.823738   3.316856   3.230736   3.690955
    19  C    3.690955   3.290653   3.289990   3.691300   3.930343
    20  C    3.230736   3.317568   3.823378   4.004951   3.691300
                   16         17         18         19         20
    16  C    0.000000
    17  C    1.528053   0.000000
    18  C    2.398205   1.461687   0.000000
    19  C    2.374002   2.374048   1.455147   0.000000
    20  C    1.462094   2.398803   2.366214   1.455309   0.000000
 Symmetry turned off by external request.
 Stoichiometry    C20
 Framework group  C1[X(C20)]
 Deg. of freedom    54
 Full point group                 C1      NOp   1
 Rotational constants (GHZ):           0.7652701           0.7650712           0.7209673

 **********************************************************************

            Population analysis using the SCF density.

 **********************************************************************

 Alpha  occ. eigenvalues --  -10.27418 -10.27416 -10.27412 -10.27410 -10.27409
 Alpha  occ. eigenvalues --  -10.27407 -10.27369 -10.27367 -10.25520 -10.25517
 Alpha  occ. eigenvalues --  -10.25501 -10.25499 -10.25489 -10.25485 -10.25463
 Alpha  occ. eigenvalues --  -10.25459 -10.25451 -10.25446 -10.25428 -10.25426
 Alpha  occ. eigenvalues --   -1.03469  -0.94978  -0.94940  -0.94938  -0.81960
 Alpha  occ. eigenvalues --   -0.81947  -0.81678  -0.80200  -0.80181  -0.68331
 Alpha  occ. eigenvalues --   -0.65718  -0.65700  -0.65352  -0.62917  -0.62903
 Alpha  occ. eigenvalues --   -0.61685  -0.51226  -0.50435  -0.50404  -0.49470
 Alpha  occ. eigenvalues --   -0.49197  -0.46777  -0.46760  -0.45123  -0.45084
 Alpha  occ. eigenvalues --   -0.43600  -0.41301  -0.41113  -0.41110  -0.39413
 Alpha  occ. eigenvalues --   -0.38820  -0.38810  -0.37420  -0.37407  -0.29312
 Alpha  occ. eigenvalues --   -0.29290  -0.27929  -0.26291  -0.26260  -0.19833
 Alpha virt. eigenvalues --   -0.13147  -0.13133  -0.12687  -0.07567  -0.07556
 Alpha virt. eigenvalues --   -0.06790  -0.04320  -0.03543  -0.03514  -0.02228
 Alpha virt. eigenvalues --    0.07147   0.07168   0.10424   0.16786   0.20398
 Alpha virt. eigenvalues --    0.20415   0.21139   0.21165   0.21519   0.22441
 Alpha virt. eigenvalues --    0.22461   0.23311   0.23335   0.23342   0.34935
 Alpha virt. eigenvalues --    0.35130   0.35141   0.35259   0.35999   0.38042
 Alpha virt. eigenvalues --    0.38096   0.39950   0.41318   0.41331   0.41822
 Alpha virt. eigenvalues --    0.42626   0.42633   0.48218   0.50072   0.50085
 Alpha virt. eigenvalues --    0.51708   0.51802   0.51901   0.51926   0.52017
 Alpha virt. eigenvalues --    0.52026   0.53001   0.53010   0.53145   0.54127
 Alpha virt. eigenvalues --    0.54157   0.54194   0.55125   0.56990   0.59451
 Alpha virt. eigenvalues --    0.60653   0.60667   0.60952   0.60971   0.61090
 Alpha virt. eigenvalues --    0.61856   0.63245   0.64303   0.64320   0.64327
 Alpha virt. eigenvalues --    0.64343   0.64504   0.65547   0.65566   0.66064
 Alpha virt. eigenvalues --    0.66074   0.72105   0.72136   0.73819   0.77508
 Alpha virt. eigenvalues --    0.77515   0.78053   0.78056   0.78811   0.79168
 Alpha virt. eigenvalues --    0.79177   0.79186   0.82620   0.83425   0.83448
 Alpha virt. eigenvalues --    0.83593   0.85680   0.86553   0.86570   0.91265
 Alpha virt. eigenvalues --    0.92629   0.92643   0.93315   0.93326   0.93553
 Alpha virt. eigenvalues --    0.93649   0.94302   0.94319   0.95022   0.95029
 Alpha virt. eigenvalues --    0.99367   1.05903   1.05917   1.06573   1.40845
 Alpha virt. eigenvalues --    1.40926   1.45449   1.45516   1.47377   1.56059
 Alpha virt. eigenvalues --    1.67628   1.67722   2.42662   2.46712   2.48884
 Alpha virt. eigenvalues --    2.49025   2.58702   2.58784   2.59599   2.61620
          Condensed to atoms (all electrons):
               1          2          3          4          5          6
     1  C    5.393188   0.335156  -0.066897   0.013231  -0.003360   0.001163
     2  C    0.335156   5.394259   0.383919  -0.117992   0.013563   0.013274
     3  C   -0.066897   0.383919   5.340102   0.384872  -0.067559   0.001287
     4  C    0.013231  -0.117992   0.384872   5.394305   0.334552  -0.128632
     5  C   -0.003360   0.013563  -0.067559   0.334552   5.394329   0.457535
     6  C    0.001163   0.013274   0.001287  -0.128632   0.457535   5.393188
     7  C    0.013274   0.000914   0.005791   0.012932  -0.129555   0.335156
     8  C    0.001287   0.005791   0.009666   0.005685   0.001548  -0.066897
     9  C   -0.128632   0.012932   0.005685   0.001015   0.013292   0.013231
    10  C    0.457535  -0.129555   0.001548   0.013292   0.000978  -0.003360
    11  C    0.384657  -0.067464  -0.086361  -0.008339  -0.008460   0.005754
    12  C   -0.116953   0.013308  -0.008529  -0.003385   0.013381   0.012465
    13  C    0.013027  -0.003442  -0.008263   0.013203  -0.117520  -0.128785
    14  C   -0.008613  -0.008213  -0.086294  -0.067831   0.384866  -0.086580
    15  C   -0.080655  -0.080709   0.386810  -0.080362  -0.081161  -0.008568
    16  C   -0.128785   0.458788  -0.087462  -0.129128   0.012717   0.013027
    17  C    0.012465  -0.129589  -0.086730   0.458132  -0.129071  -0.116953
    18  C    0.005754   0.001420  -0.012985  -0.087331  -0.086599   0.384657
    19  C   -0.008568  -0.007998   0.007480  -0.008390  -0.008219  -0.080655
    20  C   -0.086580  -0.087633  -0.012950   0.001529   0.005644  -0.008613
               7          8          9         10         11         12
     1  C    0.013274   0.001287  -0.128632   0.457535   0.384657  -0.116953
     2  C    0.000914   0.005791   0.012932  -0.129555  -0.067464   0.013308
     3  C    0.005791   0.009666   0.005685   0.001548  -0.086361  -0.008529
     4  C    0.012932   0.005685   0.001015   0.013292  -0.008339  -0.003385
     5  C   -0.129555   0.001548   0.013292   0.000978  -0.008460   0.013381
     6  C    0.335156  -0.066897   0.013231  -0.003360   0.005754   0.012465
     7  C    5.394259   0.383919  -0.117992   0.013563   0.001420  -0.129589
     8  C    0.383919   5.340102   0.384872  -0.067559  -0.012985  -0.086730
     9  C   -0.117992   0.384872   5.394305   0.334552  -0.087331   0.458132
    10  C    0.013563  -0.067559   0.334552   5.394329  -0.086599  -0.129071
    11  C    0.001420  -0.012985  -0.087331  -0.086599   5.338912   0.384351
    12  C   -0.129589  -0.086730   0.458132  -0.129071   0.384351   5.393015
    13  C    0.458788  -0.087462  -0.129128   0.012717  -0.067087   0.335317
    14  C   -0.087633  -0.012950   0.001529   0.005644  -0.086580  -0.066676
    15  C   -0.007998   0.007480  -0.008390  -0.008219   0.387396  -0.081113
    16  C   -0.003442  -0.008263   0.013203  -0.117520   0.001241   0.013238
    17  C    0.013308  -0.008529  -0.003385   0.013381   0.005809   0.001078
    18  C   -0.067464  -0.086361  -0.008339  -0.008460   0.009699   0.005809
    19  C   -0.080709   0.386810  -0.080362  -0.081161   0.007521  -0.008213
    20  C   -0.008213  -0.086294  -0.067831   0.384866  -0.013039   0.001203
              13         14         15         16         17         18
     1  C    0.013027  -0.008613  -0.080655  -0.128785   0.012465   0.005754
     2  C   -0.003442  -0.008213  -0.080709   0.458788  -0.129589   0.001420
     3  C   -0.008263  -0.086294   0.386810  -0.087462  -0.086730  -0.012985
     4  C    0.013203  -0.067831  -0.080362  -0.129128   0.458132  -0.087331
     5  C   -0.117520   0.384866  -0.081161   0.012717  -0.129071  -0.086599
     6  C   -0.128785  -0.086580  -0.008568   0.013027  -0.116953   0.384657
     7  C    0.458788  -0.087633  -0.007998  -0.003442   0.013308  -0.067464
     8  C   -0.087462  -0.012950   0.007480  -0.008263  -0.008529  -0.086361
     9  C   -0.129128   0.001529  -0.008390   0.013203  -0.003385  -0.008339
    10  C    0.012717   0.005644  -0.008219  -0.117520   0.013381  -0.008460
    11  C   -0.067087  -0.086580   0.387396   0.001241   0.005809   0.009699
    12  C    0.335317  -0.066676  -0.081113   0.013238   0.001078   0.005809
    13  C    5.393374   0.384056  -0.080393   0.001088   0.013238   0.001241
    14  C    0.384056   5.339664   0.387261   0.005876   0.001203  -0.013039
    15  C   -0.080393   0.387261   5.322971  -0.008407  -0.008213   0.007521
    16  C    0.001088   0.005876  -0.008407   5.393374   0.335317  -0.067087
    17  C    0.013238   0.001203  -0.008213   0.335317   5.393015   0.384351
    18  C    0.001241  -0.013039   0.007521  -0.067087   0.384351   5.338912
    19  C   -0.008407   0.007520   0.011517  -0.080393  -0.081113   0.387396
    20  C    0.005876   0.009696   0.007520   0.384056  -0.066676  -0.086580
              19         20
     1  C   -0.008568  -0.086580
     2  C   -0.007998  -0.087633
     3  C    0.007480  -0.012950
     4  C   -0.008390   0.001529
     5  C   -0.008219   0.005644
     6  C   -0.080655  -0.008613
     7  C   -0.080709  -0.008213
     8  C    0.386810  -0.086294
     9  C   -0.080362  -0.067831
    10  C   -0.081161   0.384866
    11  C    0.007521  -0.013039
    12  C   -0.008213   0.001203
    13  C   -0.008407   0.005876
    14  C    0.007520   0.009696
    15  C    0.011517   0.007520
    16  C   -0.080393   0.384056
    17  C   -0.081113  -0.066676
    18  C    0.387396  -0.086580
    19  C    5.322971   0.387261
    20  C    0.387261   5.339664
 Mulliken charges:
               1
     1  C   -0.001694
     2  C   -0.000729
     3  C   -0.003130
     4  C   -0.001358
     5  C   -0.000901
     6  C   -0.001694
     7  C   -0.000729
     8  C   -0.003130
     9  C   -0.001358
    10  C   -0.000901
    11  C   -0.002514
    12  C   -0.001039
    13  C   -0.001439
    14  C   -0.002907
    15  C    0.015711
    16  C   -0.001439
    17  C   -0.001039
    18  C   -0.002514
    19  C    0.015711
    20  C   -0.002908
 Sum of Mulliken charges =  -0.00000
 Mulliken charges with hydrogens summed into heavy atoms:
               1
     1  C   -0.001694
     2  C   -0.000729
     3  C   -0.003130
     4  C   -0.001358
     5  C   -0.000901
     6  C   -0.001694
     7  C   -0.000729
     8  C   -0.003130
     9  C   -0.001358
    10  C   -0.000901
    11  C   -0.002514
    12  C   -0.001039
    13  C   -0.001439
    14  C   -0.002907
    15  C    0.015711
    16  C   -0.001439
    17  C   -0.001039
    18  C   -0.002514
    19  C    0.015711
    20  C   -0.002908
 Electronic spatial extent (au):  <R**2>=           2057.2274
 Charge=              0.0000 electrons
 Dipole moment (field-independent basis, Debye):
    X=              0.0000    Y=              0.0000    Z=             -0.0000  Tot=              0.0000
 Quadrupole moment (field-independent basis, Debye-Ang):
   XX=           -109.8924   YY=           -114.4198   ZZ=           -114.7917
   XY=             -1.3250   XZ=             -0.2263   YZ=              0.0450
 Traceless Quadrupole moment (field-independent basis, Debye-Ang):
   XX=              3.1422   YY=             -1.3852   ZZ=             -1.7571
   XY=             -1.3250   XZ=             -0.2263   YZ=              0.0450
 Octapole moment (field-independent basis, Debye-Ang**2):
  XXX=              0.0000  YYY=              0.0000  ZZZ=             -0.0000  XYY=              0.0000
  XXY=              0.0000  XXZ=              0.0000  XZZ=              0.0000  YZZ=              0.0000
  YYZ=             -0.0000  XYZ=              0.0000
 Hexadecapole moment (field-independent basis, Debye-Ang**3):
 XXXX=           -980.2658 YYYY=          -1113.3031 ZZZZ=          -1125.5751 XXXY=            -17.8545
 XXXZ=             -3.4062 YYYX=            -21.1230 YYYZ=              2.8118 ZZZX=             -1.1953
 ZZZY=              0.1028 XXYY=           -347.6749 XXZZ=           -348.3270 YYZZ=           -373.0068
 XXYZ=             -1.1347 YYXZ=             -3.1429 ZZXY=             -7.2098
 N-N= 1.409713403474D+03 E-N=-4.581670315701D+03  KE= 7.572764614448D+02
 1\1\GINC-ICPC31\FOpt\RB3LYP\6-31G\C20\KYXL\05-May-2018\0\\# opt b3lyp/
 6-31g nosymm empiricaldispersion=gd3\\[No Title]\\0,1\C,1.1659408593,1
 .7227883993,0.1958769628\C,1.019886217,0.9948403088,1.5326025332\C,1.4
 669564868,-0.3796601721,1.3098486981\C,0.3848090415,-1.3260171558,1.57
 07566677\C,0.1287157614,-2.0714184171,0.2599863061\C,-1.1659408842,-1.
 7227884724,-0.1958769841\C,-1.0198862379,-0.9948403535,-1.53260262\C,-
 1.4669564776,0.379660236,-1.3098487271\C,-0.3848089837,1.3260171064,-1
 .5707565736\C,-0.1287157235,2.0714183377,-0.2599863099\C,1.6950745713,
 0.7496442745,-0.7570717416\C,0.7638761349,0.5515207348,-1.8661903642\C
 ,0.3598940623,-0.9219443496,-1.8408029163\C,1.0705233452,-1.5323272482
 ,-0.7182350498\C,1.8937383202,-0.5197825196,-0.0740343136\C,-0.3598940
 431,0.9219443831,1.8408029406\C,-0.7638761127,-0.5515206945,1.86619036
 72\C,-1.6950746531,-0.7496442805,0.7570718024\C,-1.8937383662,0.519782
 5962,0.0740342992\C,-1.0705233179,1.5323272865,0.7182350229\\Version=E
 S64L-G16RevA.03\HF=-761.2289559\RMSD=5.685e-09\RMSF=1.628e-04\Dipole=0
 .0000002,0.,0.\Quadrupole=2.3361786,-1.0298435,-1.3063351,-0.9851315,-
 0.1682483,0.0334866\PG=C01 [X(C20)]\\@


 SEEN ON A WALL AT THE UNIVERSITY OF ILLINOIS AT CHICAGO CIRCLE:

 TO DO IS TO BE  -- SOCRATES
 TO BE IS TO DO  -- SARTRE
 OO BE DO BE DO  -- SINATRA
 Job cpu time:       0 days  2 hours 56 minutes 49.9 seconds.
 Elapsed time:       0 days  0 hours 45 minutes 58.2 seconds.
 File lengths (MBytes):  RWF=     41 Int=      0 D2E=      0 Chk=      5 Scr=      1
 Normal termination of Gaussian 16 at Sat May  5 17:07:17 2018.
