 Entering Gaussian System, Link 0=g16
 Input=C24_D6d_1.gjf
 Output=C24_D6d_1.log
 Initial command:
 /export/share/g16/l1.exe "/tmp/lmy/Gau-29017.inp" -scrdir="/tmp/lmy/"
 Entering Link 1 = /export/share/g16/l1.exe PID=     29018.
  
 Copyright (c) 1988,1990,1992,1993,1995,1998,2003,2009,2016,
            Gaussian, Inc.  All Rights Reserved.
  
 This is part of the Gaussian(R) 16 program.  It is based on
 the Gaussian(R) 09 system (copyright 2009, Gaussian, Inc.),
 the Gaussian(R) 03 system (copyright 2003, Gaussian, Inc.),
 the Gaussian(R) 98 system (copyright 1998, Gaussian, Inc.),
 the Gaussian(R) 94 system (copyright 1995, Gaussian, Inc.),
 the Gaussian 92(TM) system (copyright 1992, Gaussian, Inc.),
 the Gaussian 90(TM) system (copyright 1990, Gaussian, Inc.),
 the Gaussian 88(TM) system (copyright 1988, Gaussian, Inc.),
 the Gaussian 86(TM) system (copyright 1986, Carnegie Mellon
 University), and the Gaussian 82(TM) system (copyright 1983,
 Carnegie Mellon University). Gaussian is a federally registered
 trademark of Gaussian, Inc.
  
 This software contains proprietary and confidential information,
 including trade secrets, belonging to Gaussian, Inc.
  
 This software is provided under written license and may be
 used, copied, transmitted, or stored only in accord with that
 written license.
  
 The following legend is applicable only to US Government
 contracts under FAR:
  
                    RESTRICTED RIGHTS LEGEND
  
 Use, reproduction and disclosure by the US Government is
 subject to restrictions as set forth in subparagraphs (a)
 and (c) of the Commercial Computer Software - Restricted
 Rights clause in FAR 52.227-19.
  
 Gaussian, Inc.
 340 Quinnipiac St., Bldg. 40, Wallingford CT 06492
  
  
 ---------------------------------------------------------------
 Warning -- This program may not be used in any manner that
 competes with the business of Gaussian, Inc. or will provide
 assistance to any competitor of Gaussian, Inc.  The licensee
 of this program is prohibited from giving any competitor of
 Gaussian, Inc. access to this program.  By using this program,
 the user acknowledges that Gaussian, Inc. is engaged in the
 business of creating and licensing software in the field of
 computational chemistry and represents and warrants to the
 licensee that it is not a competitor of Gaussian, Inc. and that
 it will not use this program in any manner prohibited above.
 ---------------------------------------------------------------
  

 Cite this work as:
 Gaussian 16, Revision A.03,
 M. J. Frisch, G. W. Trucks, H. B. Schlegel, G. E. Scuseria, 
 M. A. Robb, J. R. Cheeseman, G. Scalmani, V. Barone, 
 G. A. Petersson, H. Nakatsuji, X. Li, M. Caricato, A. V. Marenich, 
 J. Bloino, B. G. Janesko, R. Gomperts, B. Mennucci, H. P. Hratchian, 
 J. V. Ortiz, A. F. Izmaylov, J. L. Sonnenberg, D. Williams-Young, 
 F. Ding, F. Lipparini, F. Egidi, J. Goings, B. Peng, A. Petrone, 
 T. Henderson, D. Ranasinghe, V. G. Zakrzewski, J. Gao, N. Rega, 
 G. Zheng, W. Liang, M. Hada, M. Ehara, K. Toyota, R. Fukuda, 
 J. Hasegawa, M. Ishida, T. Nakajima, Y. Honda, O. Kitao, H. Nakai, 
 T. Vreven, K. Throssell, J. A. Montgomery, Jr., J. E. Peralta, 
 F. Ogliaro, M. J. Bearpark, J. J. Heyd, E. N. Brothers, K. N. Kudin, 
 V. N. Staroverov, T. A. Keith, R. Kobayashi, J. Normand, 
 K. Raghavachari, A. P. Rendell, J. C. Burant, S. S. Iyengar, 
 J. Tomasi, M. Cossi, J. M. Millam, M. Klene, C. Adamo, R. Cammi, 
 J. W. Ochterski, R. L. Martin, K. Morokuma, O. Farkas, 
 J. B. Foresman, and D. J. Fox, Gaussian, Inc., Wallingford CT, 2016.
 
 ******************************************
 Gaussian 16:  ES64L-G16RevA.03 25-Dec-2016
                 5-May-2018 
 ******************************************
 %rwf=/tmp/lmy/C24_D6d_1.rwf
 %nosave
 %mem=8GB
 %chk=C24_D6d_1.chk
 %nprocshared=4
 Will use up to    4 processors via shared memory.
 ---------------------------------------------------
 # opt freq b3lyp/6-31G(d,p) empiricaldispersion=gd3
 ---------------------------------------------------
 1/18=20,19=15,26=3,38=1/1,3;
 2/9=110,12=2,17=6,18=5,40=1/2;
 3/5=1,6=6,7=101,11=2,25=1,30=1,71=1,74=-5,124=31/1,2,3;
 4//1;
 5/5=2,38=5/2;
 6/7=2,8=2,9=2,10=2,28=1/1;
 7//1,2,3,16;
 1/18=20,19=15,26=3/3(2);
 2/9=110/2;
 99//99;
 2/9=110/2;
 3/5=1,6=6,7=101,11=2,25=1,30=1,71=1,74=-5,124=31/1,2,3;
 4/5=5,16=3,69=1/1;
 5/5=2,38=5/2;
 7//1,2,3,16;
 1/18=20,19=15,26=3/3(-5);
 2/9=110/2;
 6/7=2,8=2,9=2,10=2,19=2,28=1/1;
 99/9=1/99;
 ----------
 [No Title]
 ----------
 Symbolic Z-matrix:
 Charge =  0 Multiplicity = 1
 C                     0.608    -1.472    -1.584 
 C                    -0.004    -0.429    -2.205 
 C                     0.728     0.7      -2.006 
 C                    -0.078     1.671    -1.499 
 C                     0.48      2.164    -0.361 
 C                    -0.433     2.108     0.644 
 C                     0.112     1.456     1.706 
 C                    -0.716     0.445     2.082 
 C                    -0.008    -0.716     2.129 
 C                    -0.642    -1.655     1.376 
 C                     0.239    -2.18      0.484 
 C                    -0.287    -2.092    -0.767 
 C                     1.679    -0.97     -0.792 
 C                     1.443    -1.422     0.529 
 C                     1.285    -0.486     1.581 
 C                     1.362     0.902     1.311 
 C                     1.597     1.354    -0.011 
 C                     1.756     0.419    -1.062 
 C                    -1.293    -0.245    -1.629 
 C                    -1.34      1.097    -1.178 
 C                    -1.567     1.376     0.192 
 C                    -1.748     0.313     1.111 
 C                    -1.701    -1.029     0.66 
 C                    -1.473    -1.308    -0.71 
 

 GradGradGradGradGradGradGradGradGradGradGradGradGradGradGradGradGradGrad
 Berny optimization.
 Initialization pass.
                           ----------------------------
                           !    Initial Parameters    !
                           ! (Angstroms and Degrees)  !
 --------------------------                            --------------------------
 ! Name  Definition              Value          Derivative Info.                !
 --------------------------------------------------------------------------------
 ! R1    R(1,2)                  1.3594         estimate D2E/DX2                !
 ! R2    R(1,12)                 1.3612         estimate D2E/DX2                !
 ! R3    R(1,13)                 1.4235         estimate D2E/DX2                !
 ! R4    R(2,3)                  1.3602         estimate D2E/DX2                !
 ! R5    R(2,19)                 1.4238         estimate D2E/DX2                !
 ! R6    R(3,4)                  1.36           estimate D2E/DX2                !
 ! R7    R(3,18)                 1.4237         estimate D2E/DX2                !
 ! R8    R(4,5)                  1.3599         estimate D2E/DX2                !
 ! R9    R(4,20)                 1.4231         estimate D2E/DX2                !
 ! R10   R(5,6)                  1.3589         estimate D2E/DX2                !
 ! R11   R(5,17)                 1.4235         estimate D2E/DX2                !
 ! R12   R(6,7)                  1.3601         estimate D2E/DX2                !
 ! R13   R(6,21)                 1.4234         estimate D2E/DX2                !
 ! R14   R(7,8)                  1.3598         estimate D2E/DX2                !
 ! R15   R(7,16)                 1.4232         estimate D2E/DX2                !
 ! R16   R(8,9)                  1.3607         estimate D2E/DX2                !
 ! R17   R(8,22)                 1.4231         estimate D2E/DX2                !
 ! R18   R(9,10)                 1.3604         estimate D2E/DX2                !
 ! R19   R(9,15)                 1.423          estimate D2E/DX2                !
 ! R20   R(10,11)                1.3592         estimate D2E/DX2                !
 ! R21   R(10,23)                1.4234         estimate D2E/DX2                !
 ! R22   R(11,12)                1.3599         estimate D2E/DX2                !
 ! R23   R(11,14)                1.4234         estimate D2E/DX2                !
 ! R24   R(12,24)                1.4228         estimate D2E/DX2                !
 ! R25   R(13,14)                1.416          estimate D2E/DX2                !
 ! R26   R(13,18)                1.4171         estimate D2E/DX2                !
 ! R27   R(14,15)                1.417          estimate D2E/DX2                !
 ! R28   R(15,16)                1.4161         estimate D2E/DX2                !
 ! R29   R(16,17)                1.4168         estimate D2E/DX2                !
 ! R30   R(17,18)                1.4157         estimate D2E/DX2                !
 ! R31   R(19,20)                1.4165         estimate D2E/DX2                !
 ! R32   R(19,24)                1.4167         estimate D2E/DX2                !
 ! R33   R(20,21)                1.4164         estimate D2E/DX2                !
 ! R34   R(21,22)                1.4168         estimate D2E/DX2                !
 ! R35   R(22,23)                1.4165         estimate D2E/DX2                !
 ! R36   R(23,24)                1.4166         estimate D2E/DX2                !
 ! A1    A(2,1,12)             109.1252         estimate D2E/DX2                !
 ! A2    A(2,1,13)             108.8024         estimate D2E/DX2                !
 ! A3    A(12,1,13)            108.7461         estimate D2E/DX2                !
 ! A4    A(1,2,3)              109.1309         estimate D2E/DX2                !
 ! A5    A(1,2,19)             108.7791         estimate D2E/DX2                !
 ! A6    A(3,2,19)             108.7092         estimate D2E/DX2                !
 ! A7    A(2,3,4)              109.1614         estimate D2E/DX2                !
 ! A8    A(2,3,18)             108.7703         estimate D2E/DX2                !
 ! A9    A(4,3,18)             108.764          estimate D2E/DX2                !
 ! A10   A(3,4,5)              109.1241         estimate D2E/DX2                !
 ! A11   A(3,4,20)             108.7646         estimate D2E/DX2                !
 ! A12   A(5,4,20)             108.7435         estimate D2E/DX2                !
 ! A13   A(4,5,6)              109.1623         estimate D2E/DX2                !
 ! A14   A(4,5,17)             108.7499         estimate D2E/DX2                !
 ! A15   A(6,5,17)             108.7785         estimate D2E/DX2                !
 ! A16   A(5,6,7)              109.1467         estimate D2E/DX2                !
 ! A17   A(5,6,21)             108.7595         estimate D2E/DX2                !
 ! A18   A(7,6,21)             108.7023         estimate D2E/DX2                !
 ! A19   A(6,7,8)              109.1664         estimate D2E/DX2                !
 ! A20   A(6,7,16)             108.7735         estimate D2E/DX2                !
 ! A21   A(8,7,16)             108.7925         estimate D2E/DX2                !
 ! A22   A(7,8,9)              109.0931         estimate D2E/DX2                !
 ! A23   A(7,8,22)             108.7753         estimate D2E/DX2                !
 ! A24   A(9,8,22)             108.769          estimate D2E/DX2                !
 ! A25   A(8,9,10)             109.1073         estimate D2E/DX2                !
 ! A26   A(8,9,15)             108.7582         estimate D2E/DX2                !
 ! A27   A(10,9,15)            108.7753         estimate D2E/DX2                !
 ! A28   A(9,10,11)            109.1344         estimate D2E/DX2                !
 ! A29   A(9,10,23)            108.7599         estimate D2E/DX2                !
 ! A30   A(11,10,23)           108.7837         estimate D2E/DX2                !
 ! A31   A(10,11,12)           109.1474         estimate D2E/DX2                !
 ! A32   A(10,11,14)           108.7727         estimate D2E/DX2                !
 ! A33   A(12,11,14)           108.7704         estimate D2E/DX2                !
 ! A34   A(1,12,11)            109.104          estimate D2E/DX2                !
 ! A35   A(1,12,24)            108.731          estimate D2E/DX2                !
 ! A36   A(11,12,24)           108.7357         estimate D2E/DX2                !
 ! A37   A(1,13,14)            106.3251         estimate D2E/DX2                !
 ! A38   A(1,13,18)            106.2924         estimate D2E/DX2                !
 ! A39   A(14,13,18)           119.9793         estimate D2E/DX2                !
 ! A40   A(11,14,13)           106.3475         estimate D2E/DX2                !
 ! A41   A(11,14,15)           106.3148         estimate D2E/DX2                !
 ! A42   A(13,14,15)           120.0233         estimate D2E/DX2                !
 ! A43   A(9,15,14)            106.2875         estimate D2E/DX2                !
 ! A44   A(9,15,16)            106.3345         estimate D2E/DX2                !
 ! A45   A(14,15,16)           119.9894         estimate D2E/DX2                !
 ! A46   A(7,16,15)            106.3119         estimate D2E/DX2                !
 ! A47   A(7,16,17)            106.2888         estimate D2E/DX2                !
 ! A48   A(15,16,17)           119.9758         estimate D2E/DX2                !
 ! A49   A(5,17,16)            106.3088         estimate D2E/DX2                !
 ! A50   A(5,17,18)            106.3448         estimate D2E/DX2                !
 ! A51   A(16,17,18)           120.0441         estimate D2E/DX2                !
 ! A52   A(3,18,13)            106.2938         estimate D2E/DX2                !
 ! A53   A(3,18,17)            106.3084         estimate D2E/DX2                !
 ! A54   A(13,18,17)           119.9881         estimate D2E/DX2                !
 ! A55   A(2,19,20)            106.3363         estimate D2E/DX2                !
 ! A56   A(2,19,24)            106.29           estimate D2E/DX2                !
 ! A57   A(20,19,24)           120.0079         estimate D2E/DX2                !
 ! A58   A(4,20,19)            106.3131         estimate D2E/DX2                !
 ! A59   A(4,20,21)            106.3107         estimate D2E/DX2                !
 ! A60   A(19,20,21)           119.9916         estimate D2E/DX2                !
 ! A61   A(6,21,20)            106.3054         estimate D2E/DX2                !
 ! A62   A(6,21,22)            106.3584         estimate D2E/DX2                !
 ! A63   A(20,21,22)           120.0049         estimate D2E/DX2                !
 ! A64   A(8,22,21)            106.2805         estimate D2E/DX2                !
 ! A65   A(8,22,23)            106.3226         estimate D2E/DX2                !
 ! A66   A(21,22,23)           120.0034         estimate D2E/DX2                !
 ! A67   A(10,23,22)           106.3311         estimate D2E/DX2                !
 ! A68   A(10,23,24)           106.2672         estimate D2E/DX2                !
 ! A69   A(22,23,24)           119.9894         estimate D2E/DX2                !
 ! A70   A(12,24,19)           106.353          estimate D2E/DX2                !
 ! A71   A(12,24,23)           106.3451         estimate D2E/DX2                !
 ! A72   A(19,24,23)           120.0026         estimate D2E/DX2                !
 ! D1    D(12,1,2,3)           126.9619         estimate D2E/DX2                !
 ! D2    D(12,1,2,19)            8.5014         estimate D2E/DX2                !
 ! D3    D(13,1,2,3)             8.4467         estimate D2E/DX2                !
 ! D4    D(13,1,2,19)         -110.0138         estimate D2E/DX2                !
 ! D5    D(2,1,12,11)         -126.9583         estimate D2E/DX2                !
 ! D6    D(2,1,12,24)           -8.5091         estimate D2E/DX2                !
 ! D7    D(13,1,12,11)          -8.4079         estimate D2E/DX2                !
 ! D8    D(13,1,12,24)         110.0413         estimate D2E/DX2                !
 ! D9    D(2,1,13,14)          123.8053         estimate D2E/DX2                !
 ! D10   D(2,1,13,18)           -5.1026         estimate D2E/DX2                !
 ! D11   D(12,1,13,14)           5.0518         estimate D2E/DX2                !
 ! D12   D(12,1,13,18)        -123.8561         estimate D2E/DX2                !
 ! D13   D(1,2,3,4)           -126.9724         estimate D2E/DX2                !
 ! D14   D(1,2,3,18)            -8.4334         estimate D2E/DX2                !
 ! D15   D(19,2,3,4)            -8.4682         estimate D2E/DX2                !
 ! D16   D(19,2,3,18)          110.0708         estimate D2E/DX2                !
 ! D17   D(1,2,19,20)          123.83           estimate D2E/DX2                !
 ! D18   D(1,2,19,24)           -5.1179         estimate D2E/DX2                !
 ! D19   D(3,2,19,20)            5.1043         estimate D2E/DX2                !
 ! D20   D(3,2,19,24)         -123.8436         estimate D2E/DX2                !
 ! D21   D(2,3,4,5)            126.9608         estimate D2E/DX2                !
 ! D22   D(2,3,4,20)             8.4712         estimate D2E/DX2                !
 ! D23   D(18,3,4,5)             8.4178         estimate D2E/DX2                !
 ! D24   D(18,3,4,20)         -110.0718         estimate D2E/DX2                !
 ! D25   D(2,3,18,13)            5.07           estimate D2E/DX2                !
 ! D26   D(2,3,18,17)         -123.8391         estimate D2E/DX2                !
 ! D27   D(4,3,18,13)          123.8588         estimate D2E/DX2                !
 ! D28   D(4,3,18,17)           -5.0503         estimate D2E/DX2                !
 ! D29   D(3,4,5,6)           -126.9856         estimate D2E/DX2                !
 ! D30   D(3,4,5,17)            -8.4405         estimate D2E/DX2                !
 ! D31   D(20,4,5,6)            -8.4829         estimate D2E/DX2                !
 ! D32   D(20,4,5,17)          110.0622         estimate D2E/DX2                !
 ! D33   D(3,4,20,19)           -5.1017         estimate D2E/DX2                !
 ! D34   D(3,4,20,21)          123.8249         estimate D2E/DX2                !
 ! D35   D(5,4,20,19)         -123.8306         estimate D2E/DX2                !
 ! D36   D(5,4,20,21)            5.096          estimate D2E/DX2                !
 ! D37   D(4,5,6,7)            126.9456         estimate D2E/DX2                !
 ! D38   D(4,5,6,21)             8.4956         estimate D2E/DX2                !
 ! D39   D(17,5,6,7)             8.4184         estimate D2E/DX2                !
 ! D40   D(17,5,6,21)         -110.0317         estimate D2E/DX2                !
 ! D41   D(4,5,17,16)         -123.8965         estimate D2E/DX2                !
 ! D42   D(4,5,17,18)            5.1119         estimate D2E/DX2                !
 ! D43   D(6,5,17,16)           -5.1101         estimate D2E/DX2                !
 ! D44   D(6,5,17,18)          123.8983         estimate D2E/DX2                !
 ! D45   D(5,6,7,8)           -126.9621         estimate D2E/DX2                !
 ! D46   D(5,6,7,16)            -8.384          estimate D2E/DX2                !
 ! D47   D(21,6,7,8)            -8.4763         estimate D2E/DX2                !
 ! D48   D(21,6,7,16)          110.1018         estimate D2E/DX2                !
 ! D49   D(5,6,21,20)           -5.1325         estimate D2E/DX2                !
 ! D50   D(5,6,21,22)          123.8348         estimate D2E/DX2                !
 ! D51   D(7,6,21,20)         -123.8621         estimate D2E/DX2                !
 ! D52   D(7,6,21,22)            5.1052         estimate D2E/DX2                !
 ! D53   D(6,7,8,9)            126.993          estimate D2E/DX2                !
 ! D54   D(6,7,8,22)             8.4844         estimate D2E/DX2                !
 ! D55   D(16,7,8,9)             8.4268         estimate D2E/DX2                !
 ! D56   D(16,7,8,22)         -110.0819         estimate D2E/DX2                !
 ! D57   D(6,7,16,15)         -123.879          estimate D2E/DX2                !
 ! D58   D(6,7,16,17)            5.0143         estimate D2E/DX2                !
 ! D59   D(8,7,16,15)           -5.066          estimate D2E/DX2                !
 ! D60   D(8,7,16,17)          123.8273         estimate D2E/DX2                !
 ! D61   D(7,8,9,10)          -126.9564         estimate D2E/DX2                !
 ! D62   D(7,8,9,15)            -8.4418         estimate D2E/DX2                !
 ! D63   D(22,8,9,10)           -8.4438         estimate D2E/DX2                !
 ! D64   D(22,8,9,15)          110.0707         estimate D2E/DX2                !
 ! D65   D(7,8,22,21)           -5.1127         estimate D2E/DX2                !
 ! D66   D(7,8,22,23)          123.8155         estimate D2E/DX2                !
 ! D67   D(9,8,22,21)         -123.8251         estimate D2E/DX2                !
 ! D68   D(9,8,22,23)            5.1031         estimate D2E/DX2                !
 ! D69   D(8,9,10,11)          126.9707         estimate D2E/DX2                !
 ! D70   D(8,9,10,23)            8.4295         estimate D2E/DX2                !
 ! D71   D(15,9,10,11)           8.4669         estimate D2E/DX2                !
 ! D72   D(15,9,10,23)        -110.0743         estimate D2E/DX2                !
 ! D73   D(8,9,15,14)         -123.8168         estimate D2E/DX2                !
 ! D74   D(8,9,15,16)            5.106          estimate D2E/DX2                !
 ! D75   D(10,9,15,14)          -5.0934         estimate D2E/DX2                !
 ! D76   D(10,9,15,16)         123.8294         estimate D2E/DX2                !
 ! D77   D(9,10,11,12)        -127.0115         estimate D2E/DX2                !
 ! D78   D(9,10,11,14)          -8.4714         estimate D2E/DX2                !
 ! D79   D(23,10,11,12)         -8.4852         estimate D2E/DX2                !
 ! D80   D(23,10,11,14)        110.0549         estimate D2E/DX2                !
 ! D81   D(9,10,23,22)          -5.0702         estimate D2E/DX2                !
 ! D82   D(9,10,23,24)         123.8382         estimate D2E/DX2                !
 ! D83   D(11,10,23,22)       -123.8318         estimate D2E/DX2                !
 ! D84   D(11,10,23,24)          5.0765         estimate D2E/DX2                !
 ! D85   D(10,11,12,1)         126.9656         estimate D2E/DX2                !
 ! D86   D(10,11,12,24)          8.5193         estimate D2E/DX2                !
 ! D87   D(14,11,12,1)           8.4241         estimate D2E/DX2                !
 ! D88   D(14,11,12,24)       -110.0221         estimate D2E/DX2                !
 ! D89   D(10,11,14,13)       -123.8746         estimate D2E/DX2                !
 ! D90   D(10,11,14,15)          5.114          estimate D2E/DX2                !
 ! D91   D(12,11,14,13)         -5.0976         estimate D2E/DX2                !
 ! D92   D(12,11,14,15)        123.8911         estimate D2E/DX2                !
 ! D93   D(1,12,24,19)           5.1352         estimate D2E/DX2                !
 ! D94   D(1,12,24,23)        -123.8504         estimate D2E/DX2                !
 ! D95   D(11,12,24,19)        123.8162         estimate D2E/DX2                !
 ! D96   D(11,12,24,23)         -5.1694         estimate D2E/DX2                !
 ! D97   D(1,13,14,11)           0.024          estimate D2E/DX2                !
 ! D98   D(1,13,14,15)        -120.4819         estimate D2E/DX2                !
 ! D99   D(18,13,14,11)        120.451          estimate D2E/DX2                !
 ! D100  D(18,13,14,15)         -0.0549         estimate D2E/DX2                !
 ! D101  D(1,13,18,3)            0.0172         estimate D2E/DX2                !
 ! D102  D(1,13,18,17)         120.4453         estimate D2E/DX2                !
 ! D103  D(14,13,18,3)        -120.426          estimate D2E/DX2                !
 ! D104  D(14,13,18,17)          0.002          estimate D2E/DX2                !
 ! D105  D(11,14,15,9)          -0.0097         estimate D2E/DX2                !
 ! D106  D(11,14,15,16)       -120.4682         estimate D2E/DX2                !
 ! D107  D(13,14,15,9)         120.5125         estimate D2E/DX2                !
 ! D108  D(13,14,15,16)          0.0539         estimate D2E/DX2                !
 ! D109  D(9,15,16,7)           -0.0265         estimate D2E/DX2                !
 ! D110  D(9,15,16,17)        -120.4352         estimate D2E/DX2                !
 ! D111  D(14,15,16,7)         120.4087         estimate D2E/DX2                !
 ! D112  D(14,15,16,17)          0.0            estimate D2E/DX2                !
 ! D113  D(7,16,17,5)            0.0545         estimate D2E/DX2                !
 ! D114  D(7,16,17,18)        -120.4731         estimate D2E/DX2                !
 ! D115  D(15,16,17,5)         120.4747         estimate D2E/DX2                !
 ! D116  D(15,16,17,18)         -0.0529         estimate D2E/DX2                !
 ! D117  D(5,17,18,3)           -0.037          estimate D2E/DX2                !
 ! D118  D(5,17,18,13)        -120.4578         estimate D2E/DX2                !
 ! D119  D(16,17,18,3)         120.4726         estimate D2E/DX2                !
 ! D120  D(16,17,18,13)          0.0519         estimate D2E/DX2                !
 ! D121  D(2,19,20,4)           -0.003          estimate D2E/DX2                !
 ! D122  D(2,19,20,21)        -120.4527         estimate D2E/DX2                !
 ! D123  D(24,19,20,4)         120.4497         estimate D2E/DX2                !
 ! D124  D(24,19,20,21)          0.0            estimate D2E/DX2                !
 ! D125  D(2,19,24,12)          -0.0152         estimate D2E/DX2                !
 ! D126  D(2,19,24,23)         120.5218         estimate D2E/DX2                !
 ! D127  D(20,19,24,12)       -120.491          estimate D2E/DX2                !
 ! D128  D(20,19,24,23)          0.046          estimate D2E/DX2                !
 ! D129  D(4,20,21,6)            0.0192         estimate D2E/DX2                !
 ! D130  D(4,20,21,22)        -120.497          estimate D2E/DX2                !
 ! D131  D(19,20,21,6)         120.4702         estimate D2E/DX2                !
 ! D132  D(19,20,21,22)         -0.046          estimate D2E/DX2                !
 ! D133  D(6,21,22,8)            0.0024         estimate D2E/DX2                !
 ! D134  D(6,21,22,23)        -120.4438         estimate D2E/DX2                !
 ! D135  D(20,21,22,8)         120.4923         estimate D2E/DX2                !
 ! D136  D(20,21,22,23)          0.046          estimate D2E/DX2                !
 ! D137  D(8,22,23,10)          -0.0201         estimate D2E/DX2                !
 ! D138  D(8,22,23,24)        -120.4253         estimate D2E/DX2                !
 ! D139  D(21,22,23,10)        120.4052         estimate D2E/DX2                !
 ! D140  D(21,22,23,24)          0.0            estimate D2E/DX2                !
 ! D141  D(10,23,24,12)          0.058          estimate D2E/DX2                !
 ! D142  D(10,23,24,19)       -120.483          estimate D2E/DX2                !
 ! D143  D(22,23,24,12)        120.4949         estimate D2E/DX2                !
 ! D144  D(22,23,24,19)         -0.046          estimate D2E/DX2                !
 --------------------------------------------------------------------------------
 Trust Radius=3.00D-01 FncErr=1.00D-07 GrdErr=1.00D-06 EigMax=2.50D+02 EigMin=1.00D-04
 Number of steps in this run=    144 maximum allowed number of steps=    144.
 GradGradGradGradGradGradGradGradGradGradGradGradGradGradGradGradGradGrad

                          Input orientation:                          
 ---------------------------------------------------------------------
 Center     Atomic      Atomic             Coordinates (Angstroms)
 Number     Number       Type             X           Y           Z
 ---------------------------------------------------------------------
      1          6           0        0.608000   -1.472000   -1.584000
      2          6           0       -0.004000   -0.429000   -2.205000
      3          6           0        0.728000    0.700000   -2.006000
      4          6           0       -0.078000    1.671000   -1.499000
      5          6           0        0.480000    2.164000   -0.361000
      6          6           0       -0.433000    2.108000    0.644000
      7          6           0        0.112000    1.456000    1.706000
      8          6           0       -0.716000    0.445000    2.082000
      9          6           0       -0.008000   -0.716000    2.129000
     10          6           0       -0.642000   -1.655000    1.376000
     11          6           0        0.239000   -2.180000    0.484000
     12          6           0       -0.287000   -2.092000   -0.767000
     13          6           0        1.679000   -0.970000   -0.792000
     14          6           0        1.443000   -1.422000    0.529000
     15          6           0        1.285000   -0.486000    1.581000
     16          6           0        1.362000    0.902000    1.311000
     17          6           0        1.597000    1.354000   -0.011000
     18          6           0        1.756000    0.419000   -1.062000
     19          6           0       -1.293000   -0.245000   -1.629000
     20          6           0       -1.340000    1.097000   -1.178000
     21          6           0       -1.567000    1.376000    0.192000
     22          6           0       -1.748000    0.313000    1.111000
     23          6           0       -1.701000   -1.029000    0.660000
     24          6           0       -1.473000   -1.308000   -0.710000
 ---------------------------------------------------------------------
                    Distance matrix (angstroms):
                    1          2          3          4          5
     1  C    0.000000
     2  C    1.359424   0.000000
     3  C    2.215867   1.360171   0.000000
     4  C    3.218116   2.216735   1.359973   0.000000
     5  C    3.838308   3.218422   2.216038   1.359947   0.000000
     6  C    4.343278   3.838908   3.217590   2.215726   1.358944
     7  C    4.432076   4.343110   3.837960   3.217818   2.215666
     8  C    4.343664   4.432741   4.343029   3.838448   3.217705
     9  C    3.838927   4.343494   4.432265   4.343392   3.838313
    10  C    3.218321   3.838448   4.342908   4.432381   4.342904
    11  C    2.216765   3.218038   3.838440   4.343153   4.431979
    12  C    1.361218   2.216642   3.218790   3.839228   4.343577
    13  C    1.423485   2.263126   2.273125   3.249889   3.383093
    14  C    2.272552   3.248787   3.382356   3.999109   3.818228
    15  C    3.383452   3.999821   3.818824   3.999602   3.382586
    16  C    3.819086   3.999972   3.383083   3.249779   2.272917
    17  C    3.382119   3.248988   2.272202   2.262799   1.423478
    18  C    2.272943   2.263438   1.423686   2.263190   2.272576
    19  C    2.263041   1.423781   2.262652   2.272483   3.248790
    20  C    3.249508   2.273390   2.262701   1.423082   2.262383
    21  C    3.999488   3.383283   3.248877   2.272362   2.262070
    22  C    3.999998   3.819418   3.999504   3.383070   3.249149
    23  C    3.250118   3.383494   3.999630   3.819085   3.999306
    24  C    2.263036   2.272802   3.249012   3.382748   3.998849
                    6          7          8          9         10
     6  C    0.000000
     7  C    1.360137   0.000000
     8  C    2.216642   1.359809   0.000000
     9  C    3.218824   2.216058   1.360659   0.000000
    10  C    3.839228   3.218033   2.216735   1.360399   0.000000
    11  C    4.343285   3.837956   3.218113   2.215926   1.359209
    12  C    4.433084   4.343182   3.838908   3.218390   2.215726
    13  C    3.999590   3.818504   3.999766   3.382710   3.249075
    14  C    3.999188   3.382273   3.249427   2.272408   2.262504
    15  C    3.249358   2.272206   2.263131   1.423044   2.263165
    16  C    2.263040   1.423180   2.263045   2.272432   3.249383
    17  C    2.262397   2.272382   3.249138   3.382385   3.998871
    18  C    3.248827   3.382296   3.999524   3.818691   3.999465
    19  C    3.382712   3.998706   3.818449   3.999454   3.382592
    20  C    2.272544   3.248791   3.382614   3.999680   3.818851
    21  C    1.423406   2.262219   2.272237   3.249448   3.382963
    22  C    2.273618   2.262758   1.423126   2.263353   2.272990
    23  C    3.383615   3.249048   2.272660   2.263223   1.423381
    24  C    3.818897   3.998622   3.382502   3.249094   2.272084
                   11         12         13         14         15
    11  C    0.000000
    12  C    1.359934   0.000000
    13  C    2.272856   2.263772   0.000000
    14  C    1.423448   2.263055   1.415995   0.000000
    15  C    2.273139   3.250158   2.453695   1.416956   0.000000
    16  C    3.382866   4.000165   2.833281   2.453377   1.416112
    17  C    3.818160   3.999488   2.453092   2.832224   2.453041
    18  C    3.383224   3.250538   1.417092   2.453269   2.833075
    19  C    3.249003   2.272991   3.171589   3.678041   4.124108
    20  C    3.999277   3.383408   3.679109   4.123627   4.124148
    21  C    3.999004   3.819045   4.124135   4.123406   3.678351
    22  C    3.249053   3.383110   4.124540   3.678509   3.171496
    23  C    2.262604   2.272816   3.679155   3.171174   3.171638
    24  C    2.262071   1.422850   3.171131   3.170358   3.678441
                   16         17         18         19         20
    16  C    0.000000
    17  C    1.416761   0.000000
    18  C    2.453498   1.415665   0.000000
    19  C    4.124104   3.677883   3.171559   0.000000
    20  C    3.678852   3.170790   3.171491   1.416536   0.000000
    21  C    3.171100   3.170582   3.678409   2.453316   1.416429
    22  C    3.171596   3.678531   4.124461   2.833018   2.453699
    23  C    3.678931   4.123801   4.124662   2.453699   2.833450
    24  C    4.123805   4.123075   3.678705   1.416662   2.453719
                   21         22         23         24
    21  C    0.000000
    22  C    1.416789   0.000000
    23  C    2.453774   1.416536   0.000000
    24  C    2.833072   2.453428   1.416589   0.000000
 Stoichiometry    C24
 Framework group  C1[X(C24)]
 Deg. of freedom    66
 Full point group                 C1      NOp   1
 Largest Abelian subgroup         C1      NOp   1
 Largest concise Abelian subgroup C1      NOp   1
                         Standard orientation:                         
 ---------------------------------------------------------------------
 Center     Atomic      Atomic             Coordinates (Angstroms)
 Number     Number       Type             X           Y           Z
 ---------------------------------------------------------------------
      1          6           0        1.297299    1.797052    0.365278
      2          6           0        0.225840    2.204976   -0.365207
      3          6           0       -0.907128    2.021933    0.364824
      4          6           0       -1.796658    1.297556   -0.365614
      5          6           0       -2.204461    0.225339    0.364800
      6          6           0       -2.022520   -0.906629   -0.364773
      7          6           0       -1.297369   -1.796136    0.365230
      8          6           0       -0.225717   -2.204704   -0.365329
      9          6           0        0.907149   -2.021998    0.365852
     10          6           0        1.796781   -1.297284   -0.364922
     11          6           0        2.204521   -0.225569    0.364890
     12          6           0        2.022643    0.906901   -0.365763
     13          6           0        0.829582    1.148379    1.542891
     14          6           0        1.408853   -0.143707    1.542352
     15          6           0        0.579415   -1.292530    1.542933
     16          6           0       -0.829349   -1.148452    1.542899
     17          6           0       -1.408674    0.144450    1.542284
     18          6           0       -0.580177    1.292361    1.542835
     19          6           0        0.144004    1.408819   -1.542742
     20          6           0       -1.148495    0.829147   -1.542745
     21          6           0       -1.292516   -0.579941   -1.542251
     22          6           0       -0.144001   -1.409521   -1.542739
     23          6           0        1.148498   -0.829848   -1.542736
     24          6           0        1.292481    0.579405   -1.542245
 ---------------------------------------------------------------------
 Rotational constants (GHZ):           0.5876671           0.5876466           0.5073043
 Standard basis: 6-31G(d,p) (6D, 7F)
 There are   360 symmetry adapted cartesian basis functions of A   symmetry.
 There are   360 symmetry adapted basis functions of A   symmetry.
   360 basis functions,   672 primitive gaussians,   360 cartesian basis functions
    72 alpha electrons       72 beta electrons
       nuclear repulsion energy      1978.7130421491 Hartrees.
 NAtoms=   24 NActive=   24 NUniq=   24 SFac= 1.00D+00 NAtFMM=   60 NAOKFM=F Big=F
 Integral buffers will be    131072 words long.
 Raffenetti 2 integral format.
 Two-electron integral symmetry is turned on.
 Nuclear repulsion after empirical dispersion term =     1978.6816426194 Hartrees.
 One-electron integrals computed using PRISM.
 NBasis=   360 RedAO= T EigKep=  4.55D-04  NBF=   360
 NBsUse=   360 1.00D-06 EigRej= -1.00D+00 NBFU=   360
 ExpMin= 1.69D-01 ExpMax= 3.05D+03 ExpMxC= 4.57D+02 IAcc=3 IRadAn=         5 AccDes= 0.00D+00
 Harris functional with IExCor=  402 and IRadAn=       5 diagonalized for initial guess.
 HarFok:  IExCor=  402 AccDes= 0.00D+00 IRadAn=         5 IDoV= 1 UseB2=F ITyADJ=14
 ICtDFT=  3500011 ScaDFX=  1.000000  1.000000  1.000000  1.000000
 FoFCou: FMM=F IPFlag=           0 FMFlag=      100000 FMFlg1=           0
         NFxFlg=           0 DoJE=T BraDBF=F KetDBF=T FulRan=T
         wScrn=  0.000000 ICntrl=       500 IOpCl=  0 I1Cent=   200000004 NGrid=           0
         NMat0=    1 NMatS0=      1 NMatT0=    0 NMatD0=    1 NMtDS0=    0 NMtDT0=    0
 Petite list used in FoFCou.
 Requested convergence on RMS density matrix=1.00D-08 within 128 cycles.
 Requested convergence on MAX density matrix=1.00D-06.
 Requested convergence on             energy=1.00D-06.
 No special actions if energy rises.
 Integral accuracy reduced to 1.0D-05 until final iterations.
 EnCoef did     3 forward-backward iterations
 Initial convergence to 1.0D-05 achieved.  Increase integral accuracy.
 Restarting incremental Fock formation.
 Restarting incremental Fock formation.
 Restarting incremental Fock formation.
 Restarting incremental Fock formation.
 SCF Done:  E(RB3LYP) =  -913.742830880     A.U. after  104 cycles
            NFock=104  Conv=0.34D-08     -V/T= 2.0041

 **********************************************************************

            Population analysis using the SCF density.

 **********************************************************************

 Orbital symmetries:
       Occupied  (A) (A) (A) (A) (A) (A) (A) (A) (A) (A) (A) (A)
                 (A) (A) (A) (A) (A) (A) (A) (A) (A) (A) (A) (A)
                 (A) (A) (A) (A) (A) (A) (A) (A) (A) (A) (A) (A)
                 (A) (A) (A) (A) (A) (A) (A) (A) (A) (A) (A) (A)
                 (A) (A) (A) (A) (A) (A) (A) (A) (A) (A) (A) (A)
                 (A) (A) (A) (A) (A) (A) (A) (A) (A) (A) (A) (A)
       Virtual   (A) (A) (A) (A) (A) (A) (A) (A) (A) (A) (A) (A)
                 (A) (A) (A) (A) (A) (A) (A) (A) (A) (A) (A) (A)
                 (A) (A) (A) (A) (A) (A) (A) (A) (A) (A) (A) (A)
                 (A) (A) (A) (A) (A) (A) (A) (A) (A) (A) (A) (A)
                 (A) (A) (A) (A) (A) (A) (A) (A) (A) (A) (A) (A)
                 (A) (A) (A) (A) (A) (A) (A) (A) (A) (A) (A) (A)
                 (A) (A) (A) (A) (A) (A) (A) (A) (A) (A) (A) (A)
                 (A) (A) (A) (A) (A) (A) (A) (A) (A) (A) (A) (A)
                 (A) (A) (A) (A) (A) (A) (A) (A) (A) (A) (A) (A)
                 (A) (A) (A) (A) (A) (A) (A) (A) (A) (A) (A) (A)
                 (A) (A) (A) (A) (A) (A) (A) (A) (A) (A) (A) (A)
                 (A) (A) (A) (A) (A) (A) (A) (A) (A) (A) (A) (A)
                 (A) (A) (A) (A) (A) (A) (A) (A) (A) (A) (A) (A)
                 (A) (A) (A) (A) (A) (A) (A) (A) (A) (A) (A) (A)
                 (A) (A) (A) (A) (A) (A) (A) (A) (A) (A) (A) (A)
                 (A) (A) (A) (A) (A) (A) (A) (A) (A) (A) (A) (A)
                 (A) (A) (A) (A) (A) (A) (A) (A) (A) (A) (A) (A)
                 (A) (A) (A) (A) (A) (A) (A) (A) (A) (A) (A) (A)
                 (A) (A) (A) (A) (A) (A) (A) (A) (A) (A) (A) (A)
                 (A) (A) (A) (A) (A) (A) (A) (A) (A) (A) (A) (A)
                 (A) (A) (A) (A) (A) (A) (A) (A) (A) (A) (A) (A)
                 (A) (A) (A) (A) (A) (A) (A) (A) (A) (A) (A) (A)
                 (A) (A) (A) (A) (A) (A) (A) (A) (A) (A) (A) (A)
                 (A) (A) (A) (A) (A) (A) (A) (A) (A) (A) (A) (A)
 The electronic state is 1-A.
 Alpha  occ. eigenvalues --  -10.26686 -10.26672 -10.25486 -10.25484 -10.25326
 Alpha  occ. eigenvalues --  -10.25324 -10.23893 -10.23883 -10.23810 -10.23809
 Alpha  occ. eigenvalues --  -10.23412 -10.23410 -10.20903 -10.20892 -10.20806
 Alpha  occ. eigenvalues --  -10.20798 -10.20710 -10.20708 -10.20626 -10.20626
 Alpha  occ. eigenvalues --  -10.20419 -10.20419 -10.19402 -10.19401  -1.04141
 Alpha  occ. eigenvalues --   -0.98704  -0.98015  -0.93736  -0.87239  -0.86982
 Alpha  occ. eigenvalues --   -0.85190  -0.84245  -0.80011  -0.72965  -0.72926
 Alpha  occ. eigenvalues --   -0.70719  -0.70618  -0.69979  -0.69202  -0.62468
 Alpha  occ. eigenvalues --   -0.57548  -0.57395  -0.56008  -0.55860  -0.54272
 Alpha  occ. eigenvalues --   -0.54212  -0.52043  -0.51179  -0.50850  -0.45391
 Alpha  occ. eigenvalues --   -0.44759  -0.44203  -0.43443  -0.43413  -0.42606
 Alpha  occ. eigenvalues --   -0.42318  -0.41637  -0.38802  -0.38769  -0.38703
 Alpha  occ. eigenvalues --   -0.38681  -0.38605  -0.37980  -0.34792  -0.32587
 Alpha  occ. eigenvalues --   -0.32495  -0.31248  -0.30837  -0.26912  -0.18990
 Alpha  occ. eigenvalues --   -0.18921  -0.18771
 Alpha virt. eigenvalues --   -0.15936  -0.12410  -0.12286  -0.02441  -0.02379
 Alpha virt. eigenvalues --   -0.01866  -0.01733  -0.01514   0.00290   0.00321
 Alpha virt. eigenvalues --    0.01508   0.01932   0.11625   0.15117   0.15245
 Alpha virt. eigenvalues --    0.16974   0.17039   0.21273   0.21724   0.22706
 Alpha virt. eigenvalues --    0.24086   0.24120   0.25507   0.29343   0.29368
 Alpha virt. eigenvalues --    0.30207   0.30277   0.31263   0.36079   0.36087
 Alpha virt. eigenvalues --    0.40079   0.40107   0.42257   0.42312   0.43356
 Alpha virt. eigenvalues --    0.43901   0.44327   0.44587   0.44662   0.48170
 Alpha virt. eigenvalues --    0.48532   0.49462   0.49610   0.50382   0.50449
 Alpha virt. eigenvalues --    0.50454   0.51080   0.51364   0.51504   0.51660
 Alpha virt. eigenvalues --    0.53001   0.53011   0.53502   0.53572   0.53618
 Alpha virt. eigenvalues --    0.53896   0.54115   0.54248   0.55477   0.56134
 Alpha virt. eigenvalues --    0.56175   0.58083   0.58134   0.60836   0.60893
 Alpha virt. eigenvalues --    0.61164   0.61194   0.61599   0.62660   0.62717
 Alpha virt. eigenvalues --    0.63415   0.63466   0.63847   0.63885   0.63935
 Alpha virt. eigenvalues --    0.64066   0.65796   0.65932   0.66305   0.66314
 Alpha virt. eigenvalues --    0.66546   0.66603   0.67690   0.68221   0.68547
 Alpha virt. eigenvalues --    0.72701   0.75266   0.75754   0.76178   0.76633
 Alpha virt. eigenvalues --    0.80033   0.80075   0.82122   0.82150   0.82721
 Alpha virt. eigenvalues --    0.82727   0.83254   0.83631   0.83725   0.83866
 Alpha virt. eigenvalues --    0.87158   0.87388   0.89963   0.89982   0.90088
 Alpha virt. eigenvalues --    0.91542   0.91741   0.91763   0.92309   0.92315
 Alpha virt. eigenvalues --    0.94952   0.95166   0.95280   0.95450   0.99338
 Alpha virt. eigenvalues --    0.99494   1.00698   1.03026   1.03105   1.03200
 Alpha virt. eigenvalues --    1.03235   1.03374   1.03389   1.03516   1.04760
 Alpha virt. eigenvalues --    1.04780   1.05912   1.05966   1.08370   1.09483
 Alpha virt. eigenvalues --    1.09945   1.11926   1.11949   1.16955   1.48341
 Alpha virt. eigenvalues --    1.49015   1.49286   1.52161   1.52839   1.63086
 Alpha virt. eigenvalues --    1.63125   1.64172   1.64247   1.69296   1.69425
 Alpha virt. eigenvalues --    1.69443   1.72531   1.73047   1.73152   1.74433
 Alpha virt. eigenvalues --    1.74470   1.74782   1.74875   1.75539   1.75637
 Alpha virt. eigenvalues --    1.75678   1.77932   1.78079   1.78509   1.78596
 Alpha virt. eigenvalues --    1.83274   1.83911   1.85023   1.85977   1.87749
 Alpha virt. eigenvalues --    1.88032   1.90218   1.90743   1.90778   1.91337
 Alpha virt. eigenvalues --    1.91380   1.92213   1.92225   1.92480   1.92590
 Alpha virt. eigenvalues --    1.95828   1.95898   1.95914   1.96258   1.97332
 Alpha virt. eigenvalues --    1.97701   1.98946   1.99333   2.01163   2.02146
 Alpha virt. eigenvalues --    2.02350   2.02750   2.03285   2.08644   2.08768
 Alpha virt. eigenvalues --    2.11237   2.11489   2.14096   2.17455   2.17507
 Alpha virt. eigenvalues --    2.26253   2.26307   2.26775   2.26838   2.34816
 Alpha virt. eigenvalues --    2.34844   2.37706   2.38017   2.45266   2.45343
 Alpha virt. eigenvalues --    2.46853   2.46905   2.48777   2.48950   2.49247
 Alpha virt. eigenvalues --    2.49258   2.49292   2.51789   2.52072   2.52265
 Alpha virt. eigenvalues --    2.52291   2.58092   2.58187   2.59497   2.60163
 Alpha virt. eigenvalues --    2.60213   2.62714   2.62750   2.63505   2.63766
 Alpha virt. eigenvalues --    2.71865   2.71884   2.72286   2.72379   2.72694
 Alpha virt. eigenvalues --    2.76815   2.76905   2.77004   2.77167   2.78708
 Alpha virt. eigenvalues --    2.78738   2.81919   2.84222   2.84761   2.86206
 Alpha virt. eigenvalues --    2.86231   2.86369   2.86418   2.87331   2.88382
 Alpha virt. eigenvalues --    2.88597   2.89588   2.89637   2.93436   2.93500
 Alpha virt. eigenvalues --    2.96531   2.97865   2.98541   2.98603   2.99001
 Alpha virt. eigenvalues --    2.99033   3.09671   3.14874   3.14897   3.16596
 Alpha virt. eigenvalues --    3.18798   3.18859   3.33954   3.34035   4.01395
 Alpha virt. eigenvalues --    4.17142   4.17849   4.17940   4.34537   4.40395
 Alpha virt. eigenvalues --    4.40651   4.45969   4.47073   4.76459   4.76623
 Alpha virt. eigenvalues --    4.78562   4.78660   4.87344   5.03044   5.03823
 Alpha virt. eigenvalues --    5.21001   5.21491   5.29148   5.29202   5.29573
 Alpha virt. eigenvalues --    5.29879   5.36801   5.36854
          Condensed to atoms (all electrons):
               1          2          3          4          5          6
     1  C    5.089715   0.523304  -0.148440  -0.004708   0.012843   0.001181
     2  C    0.523304   5.123291   0.525289  -0.139554   0.002740   0.014539
     3  C   -0.148440   0.525289   5.095620   0.501494  -0.126765   0.010517
     4  C   -0.004708  -0.139554   0.501494   5.059446   0.550886  -0.096107
     5  C    0.012843   0.002740  -0.126765   0.550886   5.097977   0.557856
     6  C    0.001181   0.014539   0.010517  -0.096107   0.557856   5.061045
     7  C   -0.003855   0.000546   0.015521   0.011463  -0.124084   0.499374
     8  C    0.000548  -0.004611   0.000489   0.014601   0.003289  -0.139108
     9  C    0.015493   0.000485  -0.004005   0.001131   0.013238  -0.003827
    10  C    0.011372   0.014577   0.001138  -0.003443  -0.000242   0.008998
    11  C   -0.123833   0.003297   0.013204  -0.000242  -0.004822  -0.000417
    12  C    0.499408  -0.139172  -0.003887   0.009014  -0.000416  -0.003529
    13  C    0.476516  -0.099941  -0.064734   0.009750   0.005470   0.001537
    14  C   -0.096677  -0.002967   0.004642   0.004210   0.002113   0.004340
    15  C   -0.004408   0.002942  -0.001600   0.001313   0.004479   0.009664
    16  C   -0.001756   0.003002  -0.003594  -0.015257  -0.092270  -0.081099
    17  C    0.004815  -0.002803  -0.095290  -0.116030   0.425705  -0.117228
    18  C   -0.061931  -0.099700   0.473474  -0.079275  -0.087835  -0.015160
    19  C   -0.080191   0.453410  -0.082827  -0.050867  -0.000869  -0.006103
    20  C    0.002342  -0.084489  -0.098517   0.458940  -0.115359  -0.114906
    21  C    0.002764   0.002408  -0.008120  -0.114719  -0.117919   0.455785
    22  C    0.001018  -0.000520   0.001280  -0.006524  -0.002574  -0.051949
    23  C   -0.008986   0.002242   0.002797  -0.000071   0.004752   0.009667
    24  C   -0.098454  -0.085341   0.001496   0.009412   0.004934   0.000165
               7          8          9         10         11         12
     1  C   -0.003855   0.000548   0.015493   0.011372  -0.123833   0.499408
     2  C    0.000546  -0.004611   0.000485   0.014577   0.003297  -0.139172
     3  C    0.015521   0.000489  -0.004005   0.001138   0.013204  -0.003887
     4  C    0.011463   0.014601   0.001131  -0.003443  -0.000242   0.009014
     5  C   -0.124084   0.003289   0.013238  -0.000242  -0.004822  -0.000416
     6  C    0.499374  -0.139108  -0.003827   0.008998  -0.000417  -0.003529
     7  C    5.089716   0.523307  -0.148629  -0.004651   0.012850   0.001182
     8  C    0.523307   5.123769   0.525245  -0.139585   0.002723   0.014574
     9  C   -0.148629   0.525245   5.096123   0.500914  -0.126650   0.010602
    10  C   -0.004651  -0.139585   0.500914   5.058858   0.551365  -0.096155
    11  C    0.012850   0.002723  -0.126650   0.551365   5.097600   0.557332
    12  C    0.001182   0.014574   0.010602  -0.096155   0.557332   5.062457
    13  C   -0.001725   0.002990  -0.003696  -0.015291  -0.092089  -0.081305
    14  C    0.004822  -0.002799  -0.095407  -0.115843   0.425635  -0.117361
    15  C   -0.062233  -0.099682   0.474176  -0.079169  -0.087987  -0.015075
    16  C    0.477171  -0.100159  -0.064925   0.009726   0.005486   0.001509
    17  C   -0.096739  -0.002940   0.004623   0.004205   0.002125   0.004336
    18  C   -0.004494   0.002961  -0.001563   0.001314   0.004462   0.009755
    19  C    0.001025  -0.000533   0.001269  -0.006538  -0.002570  -0.051921
    20  C   -0.008995   0.002161   0.002782  -0.000061   0.004748   0.009599
    21  C   -0.098683  -0.085297   0.001577   0.009420   0.004932   0.000187
    22  C   -0.080082   0.453512  -0.082861  -0.050857  -0.000862  -0.006124
    23  C    0.002354  -0.084679  -0.098637   0.459201  -0.115382  -0.115268
    24  C    0.002741   0.002398  -0.008042  -0.114583  -0.117904   0.456066
              13         14         15         16         17         18
     1  C    0.476516  -0.096677  -0.004408  -0.001756   0.004815  -0.061931
     2  C   -0.099941  -0.002967   0.002942   0.003002  -0.002803  -0.099700
     3  C   -0.064734   0.004642  -0.001600  -0.003594  -0.095290   0.473474
     4  C    0.009750   0.004210   0.001313  -0.015257  -0.116030  -0.079275
     5  C    0.005470   0.002113   0.004479  -0.092270   0.425705  -0.087835
     6  C    0.001537   0.004340   0.009664  -0.081099  -0.117228  -0.015160
     7  C   -0.001725   0.004822  -0.062233   0.477171  -0.096739  -0.004494
     8  C    0.002990  -0.002799  -0.099682  -0.100159  -0.002940   0.002961
     9  C   -0.003696  -0.095407   0.474176  -0.064925   0.004623  -0.001563
    10  C   -0.015291  -0.115843  -0.079169   0.009726   0.004205   0.001314
    11  C   -0.092089   0.425635  -0.087987   0.005486   0.002125   0.004462
    12  C   -0.081305  -0.117361  -0.015075   0.001509   0.004336   0.009755
    13  C    4.971728   0.549951  -0.033529  -0.030748  -0.070100   0.443687
    14  C    0.549951   5.025770   0.545330  -0.069957  -0.047747  -0.069024
    15  C   -0.033529   0.545330   4.968358   0.444313  -0.068904  -0.029558
    16  C   -0.030748  -0.069957   0.444313   4.971492   0.549086  -0.033581
    17  C   -0.070100  -0.047747  -0.068904   0.549086   5.025613   0.546212
    18  C    0.443687  -0.069024  -0.029558  -0.033581   0.546212   4.968827
    19  C   -0.000908   0.001927   0.003367   0.003248   0.001488  -0.001395
    20  C   -0.003818  -0.001488   0.000773   0.007238   0.025177   0.011292
    21  C    0.000534  -0.001582  -0.003553   0.012397   0.025849   0.007018
    22  C    0.003244   0.001507  -0.001381  -0.000914   0.001925   0.003359
    23  C    0.007271   0.025278   0.011277  -0.003800  -0.001504   0.000737
    24  C    0.012425   0.025742   0.006963   0.000560  -0.001558  -0.003553
              19         20         21         22         23         24
     1  C   -0.080191   0.002342   0.002764   0.001018  -0.008986  -0.098454
     2  C    0.453410  -0.084489   0.002408  -0.000520   0.002242  -0.085341
     3  C   -0.082827  -0.098517  -0.008120   0.001280   0.002797   0.001496
     4  C   -0.050867   0.458940  -0.114719  -0.006524  -0.000071   0.009412
     5  C   -0.000869  -0.115359  -0.117919  -0.002574   0.004752   0.004934
     6  C   -0.006103  -0.114906   0.455785  -0.051949   0.009667   0.000165
     7  C    0.001025  -0.008995  -0.098683  -0.080082   0.002354   0.002741
     8  C   -0.000533   0.002161  -0.085297   0.453512  -0.084679   0.002398
     9  C    0.001269   0.002782   0.001577  -0.082861  -0.098637  -0.008042
    10  C   -0.006538  -0.000061   0.009420  -0.050857   0.459201  -0.114583
    11  C   -0.002570   0.004748   0.004932  -0.000862  -0.115382  -0.117904
    12  C   -0.051921   0.009599   0.000187  -0.006124  -0.115268   0.456066
    13  C   -0.000908  -0.003818   0.000534   0.003244   0.007271   0.012425
    14  C    0.001927  -0.001488  -0.001582   0.001507   0.025278   0.025742
    15  C    0.003367   0.000773  -0.003553  -0.001381   0.011277   0.006963
    16  C    0.003248   0.007238   0.012397  -0.000914  -0.003800   0.000560
    17  C    0.001488   0.025177   0.025849   0.001925  -0.001504  -0.001558
    18  C   -0.001395   0.011292   0.007018   0.003359   0.000737  -0.003553
    19  C    4.948215   0.479831  -0.048590  -0.020960  -0.046812   0.484503
    20  C    0.479831   5.009911   0.579958  -0.046867  -0.043916  -0.078874
    21  C   -0.048590   0.579958   5.012994   0.484504  -0.079072  -0.044574
    22  C   -0.020960  -0.046867   0.484504   4.947694   0.480098  -0.048573
    23  C   -0.046812  -0.043916  -0.079072   0.480098   5.010555   0.579716
    24  C    0.484503  -0.078874  -0.044574  -0.048573   0.579716   5.012086
 Mulliken charges:
               1
     1  C   -0.008079
     2  C   -0.012974
     3  C   -0.009181
     4  C   -0.004864
     5  C   -0.013127
     6  C   -0.005235
     7  C   -0.007901
     8  C   -0.013175
     9  C   -0.009414
    10  C   -0.004670
    11  C   -0.012999
    12  C   -0.005811
    13  C    0.012779
    14  C   -0.000415
    15  C    0.014126
    16  C    0.012834
    17  C   -0.000317
    18  C    0.013969
    19  C    0.022799
    20  C    0.002539
    21  C    0.001779
    22  C    0.022907
    23  C    0.002182
    24  C    0.002248
 Sum of Mulliken charges =  -0.00000
 Mulliken charges with hydrogens summed into heavy atoms:
               1
     1  C   -0.008079
     2  C   -0.012974
     3  C   -0.009181
     4  C   -0.004864
     5  C   -0.013127
     6  C   -0.005235
     7  C   -0.007901
     8  C   -0.013175
     9  C   -0.009414
    10  C   -0.004670
    11  C   -0.012999
    12  C   -0.005811
    13  C    0.012779
    14  C   -0.000415
    15  C    0.014126
    16  C    0.012834
    17  C   -0.000317
    18  C    0.013969
    19  C    0.022799
    20  C    0.002539
    21  C    0.001779
    22  C    0.022907
    23  C    0.002182
    24  C    0.002248
 Electronic spatial extent (au):  <R**2>=           2714.4619
 Charge=             -0.0000 electrons
 Dipole moment (field-independent basis, Debye):
    X=             -0.0043    Y=              0.0004    Z=             -0.0425  Tot=              0.0427
 Quadrupole moment (field-independent basis, Debye-Ang):
   XX=           -134.3075   YY=           -130.8924   ZZ=           -124.2466
   XY=              0.3251   XZ=              0.0000   YZ=             -0.0044
 Traceless Quadrupole moment (field-independent basis, Debye-Ang):
   XX=             -4.4920   YY=             -1.0769   ZZ=              5.5689
   XY=              0.3251   XZ=              0.0000   YZ=             -0.0044
 Octapole moment (field-independent basis, Debye-Ang**2):
  XXX=             -0.0365  YYY=              0.0077  ZZZ=              0.2791  XYY=             -0.0148
  XXY=             -0.0202  XXZ=             -0.5476  XZZ=             -0.0118  YZZ=              0.0018
  YYZ=             -0.1706  XYZ=              0.0706
 Hexadecapole moment (field-independent basis, Debye-Ang**3):
 XXXX=          -1527.2429 YYYY=          -1514.8339 ZZZZ=          -1097.7805 XXXY=              2.3588
 XXXZ=              0.0122 YYYX=             -0.8863 YYYZ=              0.0239 ZZZX=             -0.0154
 ZZZY=             -0.0664 XXYY=           -500.0929 XXZZ=           -432.6230 YYZZ=           -413.0871
 XXYZ=              0.0004 YYXZ=             -0.0008 ZZXY=              1.6201
 N-N= 1.978681642619D+03 E-N=-6.075365726520D+03  KE= 9.099903824449D+02
 Calling FoFJK, ICntrl=      2127 FMM=F ISym2X=0 I1Cent= 0 IOpClX= 0 NMat=1 NMatS=1 NMatT=0.
 ***** Axes restored to original set *****
 -------------------------------------------------------------------
 Center     Atomic                   Forces (Hartrees/Bohr)
 Number     Number              X              Y              Z
 -------------------------------------------------------------------
      1        6           0.034333307   -0.036817784   -0.046014750
      2        6          -0.006327779   -0.013216341   -0.078223457
      3        6           0.037022431    0.012161755   -0.058533676
      4        6          -0.013062448    0.054461388   -0.029279467
      5        6           0.013639132    0.073717990   -0.011487871
      6        6          -0.017345734    0.062189179   -0.000442416
      7        6           0.019054243    0.035052538    0.056186618
      8        6          -0.030660213    0.014115935    0.072012666
      9        6           0.014386985   -0.013145062    0.067386587
     10        6          -0.024683061   -0.053074298    0.023306830
     11        6           0.005827492   -0.074269197    0.013565012
     12        6          -0.018005704   -0.061290057   -0.005662468
     13        6           0.017395918   -0.023975763    0.022292753
     14        6           0.054169892    0.004628870    0.007512477
     15        6           0.020188147   -0.029455634   -0.006071958
     16        6           0.024879468    0.023550909   -0.015411625
     17        6           0.053250247   -0.006660326    0.011344109
     18        6           0.018220400    0.027688012    0.012257844
     19        6          -0.009371888   -0.000352977    0.005750674
     20        6          -0.048673642    0.015355121    0.010964448
     21        6          -0.043443420    0.006024903   -0.029590361
     22        6          -0.006938859    0.000553777   -0.008756920
     23        6          -0.042803799   -0.013519192   -0.026505773
     24        6          -0.051051117   -0.003723745    0.013400724
 -------------------------------------------------------------------
 Cartesian Forces:  Max     0.078223457 RMS     0.033811256

 GradGradGradGradGradGradGradGradGradGradGradGradGradGradGradGradGradGrad
 Berny optimization.
 FormGI is forming the generalized inverse of G from B-inverse, IUseBI=4.
 Internal  Forces:  Max     0.065679720 RMS     0.019092994
 Search for a local minimum.
 Step number   1 out of a maximum of  144
 All quantities printed in internal units (Hartrees-Bohrs-Radians)
 Mixed Optimization -- RFO/linear search
 Second derivative matrix not updated -- first step.
 ITU=  0
     Eigenvalues ---    0.04490   0.04492   0.05026   0.05030   0.05115
     Eigenvalues ---    0.05118   0.05710   0.05710   0.05778   0.06829
     Eigenvalues ---    0.06833   0.06870   0.06874   0.07616   0.07618
     Eigenvalues ---    0.07791   0.07798   0.08886   0.08890   0.08931
     Eigenvalues ---    0.08934   0.09261   0.09262   0.09830   0.10053
     Eigenvalues ---    0.10418   0.10812   0.10823   0.13590   0.13594
     Eigenvalues ---    0.18023   0.18029   0.18695   0.18696   0.19568
     Eigenvalues ---    0.19682   0.19689   0.24278   0.24284   0.25734
     Eigenvalues ---    0.25738   0.32170   0.37688   0.37700   0.37806
     Eigenvalues ---    0.37810   0.38862   0.38870   0.39392   0.39403
     Eigenvalues ---    0.39768   0.39788   0.42181   0.42224   0.42767
     Eigenvalues ---    0.42800   0.46326   0.46870   0.46914   0.47954
     Eigenvalues ---    0.48259   0.48316   0.48823   0.48886   0.48938
     Eigenvalues ---    0.48950
 RFO step:  Lambda=-1.58756305D-01 EMin= 4.49048608D-02
 Linear search not attempted -- first point.
 Maximum step size (   0.300) exceeded in Quadratic search.
    -- Step size scaled by   0.605
 Iteration  1 RMS(Cart)=  0.02428653 RMS(Int)=  0.00019262
 Iteration  2 RMS(Cart)=  0.00016595 RMS(Int)=  0.00007373
 Iteration  3 RMS(Cart)=  0.00000003 RMS(Int)=  0.00007373
 Variable       Old X    -DE/DX   Delta X   Delta X   Delta X     New X
                                 (Linear)    (Quad)   (Total)
    R1        2.56894   0.05253   0.00000   0.05258   0.05259   2.62153
    R2        2.57233   0.05755   0.00000   0.05926   0.05935   2.63168
    R3        2.69000   0.04697   0.00000   0.04514   0.04507   2.73507
    R4        2.57035   0.05124   0.00000   0.05142   0.05143   2.62178
    R5        2.69056   0.05426   0.00000   0.05102   0.05095   2.74150
    R6        2.56998   0.05798   0.00000   0.05939   0.05947   2.62944
    R7        2.69038   0.04770   0.00000   0.04572   0.04565   2.73603
    R8        2.56993   0.04033   0.00000   0.04425   0.04443   2.61436
    R9        2.68923   0.05263   0.00000   0.05297   0.05296   2.74219
   R10        2.56803   0.03888   0.00000   0.04280   0.04299   2.61102
   R11        2.68998   0.05843   0.00000   0.05957   0.05960   2.74959
   R12        2.57029   0.05838   0.00000   0.05995   0.06004   2.63032
   R13        2.68985   0.05314   0.00000   0.05357   0.05356   2.74341
   R14        2.56967   0.05227   0.00000   0.05239   0.05240   2.62207
   R15        2.68942   0.04694   0.00000   0.04510   0.04504   2.73446
   R16        2.57127   0.05095   0.00000   0.05116   0.05117   2.62244
   R17        2.68932   0.05466   0.00000   0.05134   0.05127   2.74059
   R18        2.57078   0.05781   0.00000   0.05928   0.05936   2.63015
   R19        2.68916   0.04792   0.00000   0.04586   0.04580   2.73496
   R20        2.56853   0.04082   0.00000   0.04460   0.04479   2.61332
   R21        2.68980   0.05230   0.00000   0.05269   0.05267   2.74247
   R22        2.56990   0.03823   0.00000   0.04225   0.04244   2.61234
   R23        2.68993   0.05835   0.00000   0.05953   0.05956   2.74949
   R24        2.68880   0.05342   0.00000   0.05373   0.05372   2.74251
   R25        2.67584   0.03070   0.00000   0.02535   0.02527   2.70111
   R26        2.67792   0.06525   0.00000   0.06260   0.06260   2.74051
   R27        2.67766   0.03149   0.00000   0.02610   0.02601   2.70367
   R28        2.67606   0.06568   0.00000   0.06298   0.06298   2.73904
   R29        2.67729   0.03071   0.00000   0.02533   0.02525   2.70254
   R30        2.67522   0.03195   0.00000   0.02650   0.02642   2.70164
   R31        2.67686   0.05180   0.00000   0.04755   0.04752   2.72439
   R32        2.67710   0.05011   0.00000   0.04569   0.04566   2.72276
   R33        2.67666   0.02092   0.00000   0.01582   0.01570   2.69236
   R34        2.67734   0.05019   0.00000   0.04575   0.04572   2.72306
   R35        2.67686   0.05174   0.00000   0.04753   0.04750   2.72437
   R36        2.67697   0.02091   0.00000   0.01583   0.01571   2.69268
    A1        1.90459   0.00486   0.00000   0.01204   0.01198   1.91658
    A2        1.89896  -0.00347   0.00000  -0.00971  -0.00963   1.88933
    A3        1.89798  -0.00583   0.00000  -0.01174  -0.01169   1.88629
    A4        1.90469   0.00576   0.00000   0.01260   0.01246   1.91715
    A5        1.89855  -0.00650   0.00000  -0.01510  -0.01501   1.88354
    A6        1.89733  -0.00587   0.00000  -0.01415  -0.01406   1.88327
    A7        1.90523   0.00485   0.00000   0.01183   0.01177   1.91700
    A8        1.89840  -0.00353   0.00000  -0.01006  -0.00997   1.88843
    A9        1.89829  -0.00626   0.00000  -0.01264  -0.01259   1.88570
   A10        1.90457   0.00171   0.00000   0.00676   0.00678   1.91135
   A11        1.89830  -0.00539   0.00000  -0.01142  -0.01142   1.88688
   A12        1.89793  -0.00144   0.00000  -0.00420  -0.00417   1.89376
   A13        1.90524  -0.00202   0.00000  -0.00125  -0.00128   1.90396
   A14        1.89804  -0.00441   0.00000  -0.01086  -0.01094   1.88711
   A15        1.89854  -0.00418   0.00000  -0.01052  -0.01059   1.88795
   A16        1.90497   0.00125   0.00000   0.00598   0.00600   1.91097
   A17        1.89821  -0.00118   0.00000  -0.00399  -0.00397   1.89424
   A18        1.89721  -0.00557   0.00000  -0.01170  -0.01171   1.88550
   A19        1.90531   0.00474   0.00000   0.01185   0.01180   1.91711
   A20        1.89846  -0.00598   0.00000  -0.01190  -0.01185   1.88661
   A21        1.89879  -0.00334   0.00000  -0.00965  -0.00957   1.88922
   A22        1.90403   0.00591   0.00000   0.01276   0.01261   1.91664
   A23        1.89849  -0.00652   0.00000  -0.01506  -0.01497   1.88351
   A24        1.89838  -0.00603   0.00000  -0.01438  -0.01429   1.88409
   A25        1.90428   0.00495   0.00000   0.01197   0.01191   1.91619
   A26        1.89819  -0.00351   0.00000  -0.01006  -0.00997   1.88822
   A27        1.89849  -0.00637   0.00000  -0.01275  -0.01270   1.88579
   A28        1.90475   0.00170   0.00000   0.00679   0.00681   1.91156
   A29        1.89822  -0.00525   0.00000  -0.01129  -0.01129   1.88693
   A30        1.89863  -0.00154   0.00000  -0.00434  -0.00431   1.89433
   A31        1.90498  -0.00193   0.00000  -0.00115  -0.00117   1.90381
   A32        1.89844  -0.00457   0.00000  -0.01103  -0.01110   1.88734
   A33        1.89840  -0.00404   0.00000  -0.01037  -0.01044   1.88796
   A34        1.90422   0.00137   0.00000   0.00606   0.00609   1.91031
   A35        1.89771  -0.00563   0.00000  -0.01184  -0.01185   1.88587
   A36        1.89780  -0.00118   0.00000  -0.00396  -0.00393   1.89386
   A37        1.85572   0.00512   0.00000   0.00958   0.00950   1.86522
   A38        1.85515   0.00019   0.00000   0.00269   0.00268   1.85783
   A39        2.09403   0.00242   0.00000   0.00552   0.00548   2.09951
   A40        1.85611   0.00254   0.00000   0.00473   0.00475   1.86086
   A41        1.85554   0.00273   0.00000   0.00466   0.00467   1.86021
   A42        2.09480  -0.00474   0.00000  -0.01113  -0.01108   2.08372
   A43        1.85507   0.00563   0.00000   0.01048   0.01039   1.86546
   A44        1.85589   0.00017   0.00000   0.00317   0.00314   1.85903
   A45        2.09421   0.00243   0.00000   0.00569   0.00564   2.09985
   A46        1.85549   0.00004   0.00000   0.00258   0.00256   1.85806
   A47        1.85509   0.00533   0.00000   0.00977   0.00969   1.86478
   A48        2.09397   0.00232   0.00000   0.00546   0.00542   2.09939
   A49        1.85544   0.00274   0.00000   0.00492   0.00494   1.86038
   A50        1.85607   0.00259   0.00000   0.00452   0.00453   1.86060
   A51        2.09517  -0.00485   0.00000  -0.01124  -0.01119   2.08397
   A52        1.85518   0.00033   0.00000   0.00328   0.00325   1.85843
   A53        1.85543   0.00549   0.00000   0.01036   0.01027   1.86571
   A54        2.09419   0.00243   0.00000   0.00572   0.00567   2.09985
   A55        1.85592   0.00395   0.00000   0.01026   0.01011   1.86603
   A56        1.85511   0.00457   0.00000   0.01118   0.01103   1.86614
   A57        2.09453   0.00347   0.00000   0.00839   0.00820   2.10274
   A58        1.85551   0.00163   0.00000   0.00181   0.00185   1.85736
   A59        1.85547   0.00219   0.00000   0.00459   0.00456   1.86003
   A60        2.09425  -0.00158   0.00000  -0.00383  -0.00379   2.09045
   A61        1.85538   0.00204   0.00000   0.00446   0.00445   1.85983
   A62        1.85630   0.00184   0.00000   0.00189   0.00192   1.85823
   A63        2.09448  -0.00192   0.00000  -0.00456  -0.00453   2.08996
   A64        1.85494   0.00465   0.00000   0.01128   0.01112   1.86607
   A65        1.85568   0.00389   0.00000   0.01032   0.01017   1.86585
   A66        2.09445   0.00349   0.00000   0.00839   0.00820   2.10266
   A67        1.85583   0.00160   0.00000   0.00171   0.00175   1.85758
   A68        1.85471   0.00224   0.00000   0.00468   0.00466   1.85937
   A69        2.09421  -0.00159   0.00000  -0.00384  -0.00380   2.09041
   A70        1.85621   0.00185   0.00000   0.00197   0.00201   1.85822
   A71        1.85607   0.00200   0.00000   0.00437   0.00436   1.86043
   A72        2.09444  -0.00187   0.00000  -0.00454  -0.00451   2.08993
    D1        2.21590  -0.00179   0.00000  -0.00561  -0.00565   2.21026
    D2        0.14838   0.00574   0.00000   0.01293   0.01288   0.16125
    D3        0.14742   0.00444   0.00000   0.00724   0.00719   0.15461
    D4       -1.92010   0.01197   0.00000   0.02578   0.02571  -1.89439
    D5       -2.21584  -0.00052   0.00000   0.00008   0.00007  -2.21577
    D6       -0.14851  -0.00440   0.00000  -0.00805  -0.00803  -0.15654
    D7       -0.14675  -0.00527   0.00000  -0.01150  -0.01149  -0.15823
    D8        1.92058  -0.00916   0.00000  -0.01963  -0.01959   1.90099
    D9        2.16081   0.00401   0.00000   0.01101   0.01115   2.17196
   D10       -0.08906  -0.00215   0.00000  -0.00317  -0.00311  -0.09217
   D11        0.08817   0.00350   0.00000   0.00886   0.00886   0.09703
   D12       -2.16170  -0.00266   0.00000  -0.00532  -0.00540  -2.16710
   D13       -2.21609   0.00225   0.00000   0.00662   0.00666  -2.20942
   D14       -0.14719  -0.00455   0.00000  -0.00763  -0.00758  -0.15477
   D15       -0.14780  -0.00567   0.00000  -0.01251  -0.01245  -0.16025
   D16        1.92110  -0.01247   0.00000  -0.02676  -0.02670   1.89440
   D17        2.16124   0.00463   0.00000   0.01073   0.01092   2.17216
   D18       -0.08932  -0.00479   0.00000  -0.01255  -0.01251  -0.10184
   D19        0.08909   0.00479   0.00000   0.01235   0.01231   0.10139
   D20       -2.16148  -0.00463   0.00000  -0.01093  -0.01112  -2.17260
   D21        2.21588   0.00043   0.00000  -0.00022  -0.00021   2.21567
   D22        0.14785   0.00431   0.00000   0.00757   0.00754   0.15539
   D23        0.14692   0.00553   0.00000   0.01242   0.01240   0.15932
   D24       -1.92111   0.00940   0.00000   0.02021   0.02016  -1.90096
   D25        0.08849   0.00254   0.00000   0.00433   0.00427   0.09275
   D26       -2.16140  -0.00396   0.00000  -0.01093  -0.01108  -2.17248
   D27        2.16174   0.00275   0.00000   0.00552   0.00561   2.16736
   D28       -0.08814  -0.00375   0.00000  -0.00974  -0.00974  -0.09788
   D29       -2.21632   0.00406   0.00000   0.01014   0.01012  -2.20620
   D30       -0.14731  -0.00470   0.00000  -0.00955  -0.00952  -0.15683
   D31       -0.14805  -0.00228   0.00000  -0.00216  -0.00216  -0.15022
   D32        1.92095  -0.01104   0.00000  -0.02185  -0.02180   1.89915
   D33       -0.08904  -0.00073   0.00000   0.00148   0.00154  -0.08751
   D34        2.16115  -0.00031   0.00000   0.00076   0.00089   2.16204
   D35       -2.16125   0.00113   0.00000   0.00231   0.00225  -2.15900
   D36        0.08894   0.00156   0.00000   0.00160   0.00160   0.09054
   D37        2.21562  -0.00442   0.00000  -0.01094  -0.01093   2.20469
   D38        0.14828   0.00226   0.00000   0.00203   0.00203   0.15031
   D39        0.14693   0.00448   0.00000   0.00897   0.00893   0.15586
   D40       -1.92041   0.01116   0.00000   0.02194   0.02189  -1.89852
   D41       -2.16240   0.00498   0.00000   0.01079   0.01064  -2.15176
   D42        0.08922   0.00239   0.00000   0.00299   0.00292   0.09214
   D43       -0.08919  -0.00238   0.00000  -0.00299  -0.00293  -0.09212
   D44        2.16243  -0.00497   0.00000  -0.01079  -0.01065   2.15178
   D45       -2.21591  -0.00052   0.00000   0.00008   0.00007  -2.21584
   D46       -0.14633  -0.00529   0.00000  -0.01164  -0.01162  -0.15795
   D47       -0.14794  -0.00445   0.00000  -0.00807  -0.00805  -0.15599
   D48        1.92164  -0.00922   0.00000  -0.01979  -0.01974   1.90190
   D49       -0.08958  -0.00153   0.00000  -0.00131  -0.00132  -0.09089
   D50        2.16132  -0.00147   0.00000  -0.00293  -0.00287   2.15846
   D51       -2.16180   0.00083   0.00000   0.00050   0.00037  -2.16143
   D52        0.08910   0.00090   0.00000  -0.00112  -0.00119   0.08792
   D53        2.21645  -0.00191   0.00000  -0.00577  -0.00581   2.21064
   D54        0.14808   0.00572   0.00000   0.01293   0.01288   0.16096
   D55        0.14707   0.00450   0.00000   0.00735   0.00730   0.15438
   D56       -1.92129   0.01214   0.00000   0.02605   0.02598  -1.89531
   D57       -2.16210  -0.00256   0.00000  -0.00515  -0.00523  -2.16732
   D58        0.08752   0.00354   0.00000   0.00900   0.00900   0.09652
   D59       -0.08842  -0.00221   0.00000  -0.00329  -0.00323  -0.09165
   D60        2.16119   0.00388   0.00000   0.01086   0.01100   2.17220
   D61       -2.21581   0.00229   0.00000   0.00663   0.00667  -2.20914
   D62       -0.14734  -0.00457   0.00000  -0.00767  -0.00762  -0.15496
   D63       -0.14737  -0.00565   0.00000  -0.01250  -0.01244  -0.15981
   D64        1.92110  -0.01251   0.00000  -0.02680  -0.02673   1.89437
   D65       -0.08923  -0.00477   0.00000  -0.01257  -0.01253  -0.10177
   D66        2.16099   0.00468   0.00000   0.01079   0.01098   2.17197
   D67       -2.16116  -0.00468   0.00000  -0.01101  -0.01121  -2.17236
   D68        0.08907   0.00477   0.00000   0.01235   0.01231   0.10137
   D69        2.21606   0.00040   0.00000  -0.00029  -0.00028   2.21577
   D70        0.14712   0.00433   0.00000   0.00758   0.00756   0.15468
   D71        0.14777   0.00547   0.00000   0.01233   0.01231   0.16008
   D72       -1.92116   0.00939   0.00000   0.02019   0.02014  -1.90101
   D73       -2.16101  -0.00399   0.00000  -0.01096  -0.01111  -2.17212
   D74        0.08912   0.00250   0.00000   0.00428   0.00422   0.09334
   D75       -0.08890  -0.00371   0.00000  -0.00965  -0.00966  -0.09855
   D76        2.16123   0.00278   0.00000   0.00559   0.00568   2.16691
   D77       -2.21677   0.00396   0.00000   0.01006   0.01005  -2.20672
   D78       -0.14785  -0.00467   0.00000  -0.00949  -0.00946  -0.15731
   D79       -0.14809  -0.00227   0.00000  -0.00214  -0.00215  -0.15024
   D80        1.92082  -0.01091   0.00000  -0.02170  -0.02165   1.89917
   D81       -0.08849  -0.00074   0.00000   0.00148   0.00154  -0.08695
   D82        2.16138  -0.00031   0.00000   0.00076   0.00088   2.16227
   D83       -2.16127   0.00112   0.00000   0.00230   0.00223  -2.15904
   D84        0.08860   0.00155   0.00000   0.00157   0.00158   0.09018
   D85        2.21597  -0.00446   0.00000  -0.01106  -0.01105   2.20492
   D86        0.14869   0.00221   0.00000   0.00200   0.00200   0.15069
   D87        0.14703   0.00450   0.00000   0.00891   0.00887   0.15590
   D88       -1.92025   0.01117   0.00000   0.02197   0.02192  -1.89833
   D89       -2.16202   0.00488   0.00000   0.01067   0.01052  -2.15150
   D90        0.08926   0.00238   0.00000   0.00297   0.00291   0.09217
   D91       -0.08897  -0.00239   0.00000  -0.00300  -0.00295  -0.09192
   D92        2.16231  -0.00489   0.00000  -0.01070  -0.01056   2.15175
   D93        0.08963   0.00085   0.00000  -0.00114  -0.00120   0.08843
   D94       -2.16160   0.00075   0.00000   0.00046   0.00033  -2.16127
   D95        2.16100  -0.00140   0.00000  -0.00289  -0.00283   2.15817
   D96       -0.09022  -0.00150   0.00000  -0.00130  -0.00130  -0.09152
   D97        0.00042  -0.00110   0.00000  -0.00388  -0.00395  -0.00353
   D98       -2.10281  -0.00367   0.00000  -0.00653  -0.00663  -2.10944
   D99        2.10227   0.00509   0.00000   0.01153   0.01158   2.11385
   D100      -0.00096   0.00252   0.00000   0.00888   0.00890   0.00794
   D101       0.00030  -0.00021   0.00000  -0.00067  -0.00068  -0.00037
   D102       2.10217   0.00907   0.00000   0.01984   0.01988   2.12204
   D103      -2.10183  -0.00885   0.00000  -0.01951  -0.01954  -2.12137
   D104       0.00004   0.00043   0.00000   0.00100   0.00101   0.00104
   D105      -0.00017   0.00118   0.00000   0.00433   0.00441   0.00424
   D106      -2.10257  -0.00544   0.00000  -0.01259  -0.01264  -2.11521
   D107       2.10334   0.00366   0.00000   0.00703   0.00714   2.11048
   D108       0.00094  -0.00296   0.00000  -0.00990  -0.00992  -0.00897
   D109      -0.00046  -0.00015   0.00000  -0.00058  -0.00058  -0.00105
   D110      -2.10199  -0.00889   0.00000  -0.01953  -0.01956  -2.12155
   D111       2.10153   0.00919   0.00000   0.01999   0.02003   2.12155
   D112       0.00000   0.00044   0.00000   0.00104   0.00105   0.00105
   D113       0.00095  -0.00113   0.00000  -0.00397  -0.00404  -0.00309
   D114      -2.10265  -0.00360   0.00000  -0.00652  -0.00662  -2.10928
   D115       2.10268   0.00498   0.00000   0.01139   0.01144   2.11412
   D116      -0.00092   0.00251   0.00000   0.00884   0.00886   0.00794
   D117      -0.00065   0.00121   0.00000   0.00437   0.00446   0.00381
   D118      -2.10238  -0.00549   0.00000  -0.01261  -0.01266  -2.11505
   D119       2.10264   0.00376   0.00000   0.00713   0.00724   2.10988
   D120       0.00091  -0.00294   0.00000  -0.00986  -0.00988  -0.00897
   D121      -0.00005  -0.00230   0.00000  -0.00815  -0.00823  -0.00829
   D122      -2.10230  -0.00553   0.00000  -0.01321  -0.01332  -2.11561
   D123       2.10224   0.00951   0.00000   0.02117   0.02121   2.12346
   D124      -0.00000   0.00628   0.00000   0.01611   0.01613   0.01613
   D125      -0.00027   0.00227   0.00000   0.00809   0.00819   0.00792
   D126       2.10350   0.00523   0.00000   0.01252   0.01264   2.11614
   D127      -2.10297  -0.00923   0.00000  -0.02076  -0.02081  -2.12377
   D128       0.00080  -0.00627   0.00000  -0.01633  -0.01635  -0.01555
   D129       0.00034  -0.00005   0.00000  -0.00020  -0.00020   0.00013
   D130      -2.10307  -0.00293   0.00000  -0.00339  -0.00344  -2.10651
   D131       2.10260   0.00289   0.00000   0.00347   0.00353   2.10613
   D132      -0.00080   0.00002   0.00000   0.00029   0.00029  -0.00051
   D133       0.00004   0.00220   0.00000   0.00809   0.00818   0.00822
   D134      -2.10214  -0.00929   0.00000  -0.02092  -0.02096  -2.12310
   D135       2.10299   0.00518   0.00000   0.01255   0.01267   2.11566
   D136       0.00080  -0.00631   0.00000  -0.01645  -0.01647  -0.01567
   D137      -0.00035  -0.00228   0.00000  -0.00816  -0.00824  -0.00859
   D138      -2.10182  -0.00556   0.00000  -0.01326  -0.01337  -2.11518
   D139       2.10147   0.00960   0.00000   0.02133   0.02137   2.12284
   D140       0.00000   0.00632   0.00000   0.01623   0.01625   0.01625
   D141       0.00101  -0.00009   0.00000  -0.00022  -0.00022   0.00079
   D142      -2.10283  -0.00298   0.00000  -0.00345  -0.00350  -2.10633
   D143       2.10303   0.00286   0.00000   0.00340   0.00346   2.10649
   D144      -0.00080  -0.00003   0.00000   0.00017   0.00018  -0.00063
         Item               Value     Threshold  Converged?
 Maximum Force            0.065680     0.000450     NO 
 RMS     Force            0.019093     0.000300     NO 
 Maximum Displacement     0.116897     0.001800     NO 
 RMS     Displacement     0.024294     0.001200     NO 
 Predicted change in Energy=-7.552965D-02
 GradGradGradGradGradGradGradGradGradGradGradGradGradGradGradGradGradGrad

                          Input orientation:                          
 ---------------------------------------------------------------------
 Center     Atomic      Atomic             Coordinates (Angstroms)
 Number     Number       Type             X           Y           Z
 ---------------------------------------------------------------------
      1          6           0        0.618188   -1.506244   -1.612979
[...]
 ,0.00778104,-0.02079586,-0.01680604,0.01408200,-0.01932655,-0.10942116
 ,0.01956805,0.02639756,-0.03189147,-0.01093541,0.01776262,-0.01696314,
 -0.02124350,0.00199082,-0.00422670,0.00335857,0.00157788,-0.00134476,-
 0.00314869,-0.00076980,0.00055168,-0.00341931,-0.00067576,0.01202327,-
 0.01087835,0.00208810,0.00193706,0.01259159,-0.01860313,-0.05053516,0.
 00950996,0.03654545,0.28263653,0.00009418,-0.00414303,0.00513407,0.000
 91100,0.00140364,0.00508441,0.00077864,0.00070937,-0.00379469,-0.00309
 746,0.00690205,-0.00781262,0.00775275,-0.01419373,0.02070586,0.0250644
 0,-0.01497048,0.00294604,0.03399141,-0.07600328,0.01879795,-0.01721761
 ,0.00459871,0.00180211,-0.02752270,-0.01147045,0.01271398,0.00539562,0
 .00944224,-0.00066664,0.00672268,0.00105543,-0.00525837,-0.00301148,-0
 .00548888,-0.00464283,-0.00201568,-0.04354956,0.03122660,0.00764475,-0
 .04406813,-0.06393829,-0.01576475,-0.23735001,0.05379709,-0.03735329,0
 .47705843,-0.00284770,0.01002490,-0.00755884,-0.00142714,-0.01130156,-
 0.01181067,0.00528956,-0.00832731,0.00357063,-0.00105092,0.00071075,0.
 00828628,-0.01689863,0.01419019,-0.02161852,-0.01875523,-0.00462084,0.
 00376066,0.03509729,0.02206256,-0.04987489,0.02164130,0.00445743,-0.00
 280194,0.01578785,0.02025454,-0.00696025,-0.00155121,-0.00581173,-0.00
 220525,-0.00158521,-0.00666394,0.00286259,0.00039588,0.00687397,0.0025
 4462,0.01504488,0.02942745,-0.03264605,-0.02201756,0.00677560,0.036292
 77,0.04066058,0.00549187,-0.07976012,-0.10509384,-0.10927230,0.4218821
 3,0.00564776,-0.00293565,-0.00492162,0.00118070,0.00633392,-0.00005645
 ,-0.00291857,-0.01326565,-0.01648822,-0.01534215,-0.00757657,-0.019982
 96,-0.09449734,0.04123903,-0.00431121,-0.03066256,0.01520688,0.0152712
 0,-0.02088937,-0.00474063,0.01771514,-0.00285082,0.00357833,-0.0030183
 4,-0.00119888,-0.00268458,0.00251028,-0.00040543,-0.00260153,0.0023450
 8,-0.00212501,0.00232078,-0.00045306,0.00554793,0.00261257,0.00246585,
 -0.00706797,0.01232736,0.00698996,0.01147897,-0.00642480,0.01403287,-0
 .00064440,-0.01628906,-0.01799272,-0.04616504,0.02647291,0.03402877,0.
 25309774,0.00321882,-0.00284268,0.00765616,-0.00181034,0.00427065,-0.0
 0207503,-0.01017046,-0.00053288,-0.00645646,-0.00182738,-0.00021629,0.
 01551083,0.05629724,-0.05295315,0.00390088,0.01523438,-0.00199001,-0.0
 0791419,0.00427888,0.00723614,-0.01242227,0.00164384,-0.00282371,-0.00
 050858,0.00148279,-0.00278183,0.00409096,-0.00077381,0.00195969,-0.003
 15215,-0.00156205,0.00003779,-0.00767693,-0.00360107,-0.01135481,0.003
 36268,-0.01573504,-0.04353560,0.00126332,0.00926360,-0.00983467,-0.010
 08689,-0.01724216,-0.00495357,0.01561358,0.01388187,-0.10319330,0.0769
 6553,-0.09758406,0.37289777,0.00220622,0.00132423,0.00652925,0.0025652
 9,0.00668451,0.01064228,-0.01565465,-0.01325239,-0.03369434,-0.0303225
 1,0.00913833,-0.01279288,-0.01129103,0.00752251,-0.08820766,0.02289348
 ,-0.00662615,0.00268678,0.03099965,-0.00751133,-0.02149302,-0.00713181
 ,-0.00485859,0.00868875,-0.00663035,0.00378633,0.00646209,0.00436297,0
 .00801886,-0.00384268,-0.00118467,-0.00217726,-0.01170266,-0.00311395,
 -0.01180388,0.00055433,0.00054875,-0.06360302,0.04476433,0.01260730,-0
 .01273029,-0.06590451,-0.00455034,0.08531736,-0.00009511,0.04988851,0.
 02618433,-0.21852649,-0.03619201,0.02577874,0.55560511,-0.00989256,-0.
 02376283,0.00115452,-0.02077212,-0.01679461,-0.00558403,-0.08213081,0.
 01986832,-0.04135381,-0.02209326,0.02323782,-0.00605441,-0.01597571,0.
 01222245,0.00975315,-0.00312551,0.00002574,-0.00369449,-0.00166428,0.0
 0199130,0.00411351,-0.00004487,0.00065075,0.00213805,-0.00221050,-0.00
 069424,-0.00329547,0.00489402,0.00170929,0.00171669,0.00540551,-0.0053
 7198,0.00151705,0.00227375,0.00436013,-0.00593673,-0.03058624,-0.01175
 999,-0.02301411,-0.00770926,0.01116885,0.00570510,0.01286664,-0.001802
 38,0.01142708,-0.00614617,-0.01682341,-0.00156980,-0.03370415,0.032173
 85,-0.00365645,0.22641544,-0.02189068,-0.02688395,-0.00787518,-0.02292
 198,0.00840690,-0.00907745,0.02185563,-0.08011333,-0.01243076,0.029850
 83,-0.01301609,0.00755155,0.02828728,-0.02924524,-0.01021899,-0.004759
 76,0.00428127,0.00882090,-0.00335394,0.00798046,0.00127297,0.00393266,
 -0.00114947,-0.00956731,-0.00321351,-0.01257505,-0.00515273,-0.0071595
 3,-0.00575049,0.01432557,0.00346011,0.00825512,0.00519256,0.00280809,0
 .00988647,-0.00160560,-0.01963928,-0.23677467,0.00201465,-0.01291476,-
 0.00565808,0.08563621,0.00502440,-0.06345127,-0.01910273,-0.00134927,0
 .04731208,-0.05736137,0.03623278,-0.15547097,-0.04634150,-0.03739136,0
 .54861920,-0.00187374,-0.01444682,-0.00052083,-0.01634315,-0.01366612,
 -0.01569898,-0.05736731,-0.00646286,-0.07333073,-0.00238445,0.00782870
 ,0.00524984,0.00943549,-0.00615228,0.00995283,-0.00464675,0.00496548,0
 .00191077,-0.00409872,0.00276333,-0.00385785,0.00326398,0.00145654,-0.
 00126123,0.00054673,-0.00008109,0.00116719,0.00203440,-0.00042865,-0.0
 0448883,-0.00125082,-0.00137789,-0.00443728,0.00363815,0.00578243,0.00
 382429,-0.01662170,0.05573606,-0.10025952,0.01612084,0.01966878,0.0076
 7332,-0.00300563,-0.01994334,-0.01370262,0.01713438,0.00937747,-0.0468
 9023,0.00699673,-0.09973069,-0.17829170,0.06423611,0.05360594,0.406316
 99,-0.02297854,0.02451098,-0.00016064,-0.11233150,0.01292256,0.0289178
 5,-0.02642557,-0.02084040,-0.00121676,-0.00765987,-0.02618916,-0.00786
 824,0.00151935,0.00500848,0.00585797,0.00440706,-0.00560964,0.00101223
 ,0.00513689,0.00145465,0.00191154,-0.00278054,-0.00090349,0.00167352,0
 .00136725,0.00116276,-0.00113884,-0.00187655,0.00308302,-0.00291028,-0
 .00516018,0.00125731,0.00142893,-0.00762879,0.01154930,-0.01479878,0.0
 0016752,-0.00818396,0.00492921,0.00076242,-0.00069972,-0.00666637,-0.0
 0072322,0.00649394,0.00342716,-0.00531715,-0.00292317,0.00733751,-0.00
 581302,0.00502606,-0.00839782,-0.00992613,0.00705168,-0.00170628,0.287
 08473,0.03113126,-0.01185148,0.00055449,0.01033506,-0.08299554,0.01452
 650,-0.02660843,0.00589390,0.00303971,-0.02261152,-0.02839444,-0.00315
 224,0.00244235,0.01037290,0.00337335,0.00452766,0.00865388,-0.00216504
 ,-0.00195685,-0.00384181,-0.01587662,-0.00423153,-0.01296252,0.0021146
 5,0.00086236,-0.00196177,0.01034338,-0.00375514,0.00834132,-0.00116910
 ,-0.00203937,0.00595680,-0.00966558,0.02554940,-0.03163564,0.01463670,
 -0.00929542,-0.00354045,0.00197360,0.00676820,-0.00239166,0.00067070,-
 0.00667233,0.00541447,-0.00356441,0.00812238,0.00043867,0.00553288,-0.
 00418442,-0.00578353,-0.00672880,0.00720641,0.00145928,0.00067199,-0.0
 0965233,0.56117928,-0.00327667,-0.00195427,0.00482959,0.04489137,0.008
 93429,-0.03974784,0.00868877,0.00929505,-0.00795456,-0.00415144,0.0023
 6029,-0.00098830,-0.00402055,-0.00342786,0.00418017,0.00489834,0.00110
 151,-0.00368198,0.00100210,0.00113300,-0.00649245,-0.00245895,-0.00202
 913,0.00190001,-0.00214228,-0.00110538,-0.00168566,0.00444525,-0.00035
 012,-0.00396581,0.00202382,-0.00431183,0.00220567,-0.01251426,0.005376
 35,0.00405155,0.00284821,0.00166099,0.00251897,-0.00184515,0.00174701,
 -0.00428872,0.00264358,0.00384093,0.00281021,0.00101930,-0.00363371,0.
 00314120,0.00569501,-0.00511823,-0.00116637,-0.00375176,0.00072494,0.0
 0850461,-0.10716341,-0.03819568,0.33288228,-0.00439543,-0.00334066,0.0
 0119224,-0.01600053,0.02092722,0.00453068,-0.03129300,0.00940566,0.019
 14789,-0.11101699,-0.02230175,0.02316862,-0.01764195,-0.01162614,-0.02
 127996,-0.00164019,-0.00520175,-0.02208596,0.00072540,-0.00297802,0.00
 568554,0.00507852,-0.00385502,-0.00496693,0.00519443,-0.00181934,0.004
 48079,-0.00211182,-0.00101101,0.00161219,0.00072641,0.00345025,-0.0000
 5045,-0.00147161,0.00331702,-0.00030030,-0.00084315,0.00579109,-0.0037
 4377,-0.00013165,-0.00059855,0.00703851,-0.00545026,-0.00797328,-0.000
 02316,-0.00605648,0.00835363,0.00051885,-0.01223550,0.00294021,0.00398
 018,0.00321928,-0.00743437,-0.00362273,-0.05039585,-0.01793608,0.03336
 815,0.28539320,-0.00487480,0.00851254,0.00225669,0.02512579,-0.0078576
 0,-0.01275573,0.01489512,0.00501341,-0.00129622,-0.03761854,-0.0688712
 9,-0.02208137,-0.02229108,-0.01428524,-0.00508279,-0.00576367,-0.00947
 189,-0.01852059,0.00337365,0.00603946,0.00725003,-0.00172533,-0.000854
 05,0.00315256,-0.00089003,0.00020743,-0.00343844,0.00038750,-0.0021289
 4,-0.00429891,0.00286066,-0.00516035,0.00359408,-0.00633451,-0.0005241
 1,0.00484047,0.00564856,-0.00338394,-0.00028626,-0.00592057,0.00255198
 ,-0.00225851,0.00204387,0.00091471,0.00326825,-0.00813759,0.00302301,-
 0.00072469,0.00494419,0.00739453,-0.00227028,-0.00633449,-0.00270484,-
 0.00462780,0.00642001,-0.22670611,-0.07420524,0.05467488,0.44512331,-0
 .00212826,0.00727159,-0.00105958,0.01868523,-0.02065661,-0.01139754,0.
 02371733,-0.00386481,-0.00353393,0.02995854,-0.02541999,-0.05583176,-0
 .02195710,0.00260468,0.00369151,-0.01807877,-0.01222144,-0.02618061,-0
 .00062640,-0.00103343,0.00927201,0.00520946,0.00771926,0.00498943,-0.0
 0120239,0.01275519,-0.01077856,-0.00298031,-0.00919794,-0.00936447,0.0
 0064282,-0.00792189,0.00200285,-0.00226931,0.00615708,0.00445421,0.004
 86510,0.00205727,-0.00174602,-0.00562011,0.00407437,0.00507893,0.00744
 219,-0.00606981,0.00288063,-0.00061508,0.00248641,-0.00980366,0.003010
 46,-0.00252269,0.00482526,-0.00551434,-0.00535129,-0.00142324,0.041999
 19,-0.02608921,-0.09069209,-0.09681455,0.11481542,0.45192293,-0.000312
 52,0.00231679,0.00285073,-0.00116909,0.00239175,0.00270706,-0.00297986
 ,-0.00320284,-0.00348066,-0.02108584,0.00287970,0.01861764,-0.03127155
 ,-0.01633652,0.01341886,-0.09633752,-0.03946318,-0.00922915,-0.0149100
 1,0.01044317,-0.01946781,-0.00229344,0.01517077,-0.01457506,0.00104037
 ,-0.00627809,-0.00070888,0.00567059,0.00352033,-0.00469176,0.00556985,
 -0.00336732,0.00191708,-0.00206010,-0.00227129,-0.00050907,0.00102411,
 -0.00682218,0.00336919,-0.00383329,-0.00464639,-0.00788480,-0.00589371
 ,0.00334156,0.00626308,-0.01236932,-0.00473520,0.00237265,0.00474360,-
 0.00061101,-0.00734621,-0.00260341,0.00622638,0.00335330,0.00003561,0.
 01856304,-0.01597761,-0.04775868,-0.03148602,0.02857805,0.25783551,0.0
 0022890,0.00243795,0.00407271,-0.00070918,-0.00154335,-0.00521829,-0.0
 0069459,-0.00321951,-0.00105646,-0.00785568,0.00413589,0.01554418,-0.0
 1759627,-0.00304164,0.00684958,-0.05354305,-0.04996455,0.00091436,0.00
 626901,0.00260908,-0.01300602,0.01200930,-0.00446277,0.01067205,0.0015
 1166,0.00495196,0.00143102,-0.00363166,-0.00144100,-0.00851954,0.00360
 076,-0.01224708,-0.00520019,0.00176605,-0.00155763,0.00906698,0.001869
 29,0.00297126,-0.00410164,-0.00680900,0.00210098,0.00280529,-0.0039319
 0,-0.00721569,0.00412581,-0.00300171,0.00689949,0.00282146,0.00147197,
 0.00272082,0.00126622,-0.00097023,-0.00227117,-0.00198371,0.01789563,0
 .00742004,-0.01420789,-0.02113947,-0.09042644,-0.06057962,0.10392829,0
 .37867045,0.00429725,-0.00723008,-0.00454844,-0.00676717,-0.00478646,0
 .00527504,-0.00717094,0.00344941,0.00922494,0.03057914,0.01031250,-0.0
 1844139,0.02090147,0.00518710,0.00432305,-0.01881220,-0.00228477,-0.08
 888022,-0.03004453,-0.00648032,-0.01574770,-0.01367530,0.01760523,-0.0
 3028272,0.00261698,-0.00738674,0.00984087,0.00167237,-0.00251663,0.005
 19114,-0.00238807,0.01022087,0.00155569,-0.00102144,0.00371000,-0.0102
 4409,-0.00837900,-0.00017036,0.00352513,0.00576834,-0.00456727,0.00001
 935,-0.00881926,0.00611300,0.00029373,0.00357890,0.00241227,0.00543330
 ,-0.00725345,0.00035633,-0.00833613,0.00718529,0.00166179,-0.00109478,
 -0.00402284,-0.08408884,-0.01334577,0.04716837,-0.01018240,-0.22996922
 ,-0.02335311,-0.04853547,0.54516407,0.00498642,-0.00214124,0.00140749,
 -0.00232279,0.00108669,-0.00306563,-0.00021416,-0.00082157,0.00213573,
 -0.00155740,-0.00239035,0.00371717,-0.00302137,0.00066000,-0.00371111,
 -0.01672134,-0.01338668,0.00827032,-0.02323296,-0.02191339,-0.00949419
 ,-0.08256005,-0.01485564,-0.04313531,-0.02024702,0.01773704,-0.0030964
 2,-0.00871456,0.02303805,0.00482442,0.00209773,-0.00318255,-0.00640326
 ,0.00543225,0.00505177,0.00204927,-0.00200920,0.00413503,-0.00891670,-
 0.00601125,-0.00308230,0.00640397,-0.01018928,-0.00635250,-0.00477759,
 0.00350897,0.00689876,-0.00454044,-0.00273718,0.00004220,0.00723509,0.
 00157463,-0.00720496,-0.00396444,0.01285195,-0.00162026,0.01174135,-0.
 00573321,0.01791565,0.00230316,-0.03533295,-0.03397690,-0.00743313,0.2
 2760248,0.00670337,-0.00395457,-0.01438866,0.00282353,-0.01316422,0.00
 342456,-0.00433786,-0.00180086,0.00937738,0.00438737,0.00828138,0.0000
 7212,0.00554894,0.00579933,-0.00824961,-0.02964837,-0.02984594,0.00467
 622,-0.02901412,-0.00947313,-0.00949158,-0.01414676,-0.08184431,0.0120
 7188,0.02532528,0.00387153,0.01196013,0.02151468,-0.03047713,0.0040852
 0,-0.00308630,0.01068045,0.00270678,-0.00340222,0.00859185,-0.00353753
 ,-0.00936900,0.00066949,0.00292624,0.00624516,-0.00583609,-0.00528208,
 -0.00649634,0.00206445,-0.00159650,0.00782823,-0.00426117,0.00511707,-
 0.00661185,-0.00210777,-0.00193402,0.00766527,0.00539843,-0.00094642,-
 0.00616775,-0.06754103,0.01165646,0.00007668,0.03885398,0.06911870,-0.
 03960888,-0.17375858,0.04699650,0.03573637,0.55918275,0.00302846,0.000
 47370,-0.00622857,0.00085817,-0.00176174,0.00164431,0.00263979,-0.0015
 5631,-0.00026584,-0.00364658,-0.00110172,-0.00422481,-0.00409842,-0.00
 426926,0.00022386,0.00568950,0.00068482,0.01135269,-0.00644004,-0.0098
 0057,0.00270543,-0.05935331,0.00663567,-0.07067404,-0.01276573,0.01637
 467,-0.01211154,0.00137612,0.01062633,0.00214865,0.00315288,-0.0049823
 2,0.00329669,-0.00161685,0.00306966,-0.00464592,-0.00292025,-0.0023299
 0,-0.00039879,-0.00767443,-0.00620369,-0.00091572,-0.00273081,-0.00158
 487,0.00816262,-0.00248269,0.00436487,-0.00010183,0.00252012,0.0017628
 5,-0.00107244,-0.00295825,0.00163891,0.00052798,-0.00330607,0.01276757
 ,-0.00947883,0.01719459,0.00186944,-0.03885567,0.00374845,0.10030563,-
 0.15854723,0.06806479,-0.03459090,0.39436258,0.00314794,0.00333328,-0.
 00752343,0.00520514,0.00077665,0.00517680,0.00443395,-0.00270026,0.000
 72636,-0.00311566,0.00404250,0.00035352,0.00084523,-0.00088873,-0.0001
 8394,-0.00165726,-0.00511038,-0.00158262,-0.00409803,0.00130458,-0.002
 16368,-0.00963448,-0.01278608,-0.00439360,-0.01571701,-0.00652100,-0.0
 2341405,-0.08517371,0.03043307,-0.03469553,-0.02736903,0.01060048,0.01
 003872,-0.01599677,0.00906098,0.02471365,-0.00651541,-0.00829714,0.000
 66672,-0.00839894,-0.00118924,-0.00871250,0.00055198,0.00861702,0.0040
 3255,-0.00108989,-0.00627460,0.00400667,0.00112733,-0.00066084,-0.0085
 1647,-0.00192645,0.00966945,-0.00159026,-0.00494875,-0.02104914,-0.005
 02406,0.01227910,-0.00114582,0.01463404,-0.00697762,0.01466268,0.00373
 396,-0.02970826,0.01713973,-0.01547041,0.23575164,-0.00544920,0.006093
 93,0.00604935,0.00035529,-0.00100402,0.00328163,0.00174388,0.00016805,
 -0.00290815,0.00106651,-0.00225594,-0.00415807,-0.00414109,-0.00490698
 ,0.00240383,0.00441811,-0.00057569,0.00670163,0.00438806,0.00820171,0.
 00391204,-0.01926055,-0.00611773,-0.02009943,-0.01251681,0.00597327,-0
 .00496246,0.04382905,-0.07187750,-0.00680749,0.02320168,-0.01579289,0.
 00193779,0.01170608,-0.01017143,-0.01663874,0.00831816,0.00302728,0.00
 207591,-0.00316991,0.00766627,-0.00335651,0.00732581,-0.00336615,-0.00
 247966,-0.00530083,-0.00287027,-0.00232661,0.00636428,0.00227856,0.000
 18734,-0.00281935,0.00062865,0.00248757,-0.01571794,0.04007495,-0.0033
 6697,0.00949780,-0.03547843,-0.03014826,-0.01391562,-0.05017087,0.0507
 5060,0.01015911,-0.22758121,-0.07239688,-0.08076423,0.45118631,-0.0015
 2869,0.00007136,0.00679397,-0.00477649,0.00873155,0.00501289,0.0071124
 7,0.01241701,-0.00997908,0.00474049,-0.00851243,-0.00823340,-0.0013799
 1,-0.00861547,0.00163136,0.00037039,0.00466081,0.00469101,0.00135888,0
 .00798665,-0.00104556,-0.01884554,-0.02554261,-0.01950242,-0.02805053,
 -0.00536666,-0.02007074,-0.04173775,-0.01473263,-0.07867150,0.01096850
 ,0.00562315,0.01492804,0.02098054,-0.01071330,-0.01112386,0.00181769,-
 0.00040751,-0.00935032,-0.00773980,-0.00297184,0.00071855,0.00589958,-
 0.00288046,0.00190442,-0.00449344,0.00020856,-0.00201330,0.00436441,0.
 00384597,0.00409383,-0.00937882,-0.00267394,-0.00035623,0.01289900,0.0
 6528184,-0.04085860,0.00262452,-0.03169429,-0.04100359,0.00512341,-0.0
 1423592,0.05144964,-0.02182783,-0.01860510,-0.11050122,0.02674079,0.08
 877543,0.49549507,-0.03083048,-0.00635567,0.01360277,-0.01570273,-0.01
 981529,0.02032370,0.00288829,0.00847460,-0.00173216,0.00482496,-0.0027
 8982,0.00418857,0.00486716,-0.00094754,-0.00098392,-0.00359717,0.00097
 826,0.00325140,0.00139975,0.00025998,-0.00057466,-0.00165577,-0.000624
 60,-0.00537131,-0.00484299,0.00195972,-0.00152620,-0.00555710,-0.00561
 892,-0.01331805,-0.01538736,0.01437816,-0.02012013,-0.10035665,0.04013
 880,0.00491520,-0.00828130,0.00438010,-0.00708833,-0.00131043,0.000560
 87,0.00985948,0.00064323,-0.00653191,-0.00278120,0.00000314,0.00665864
 ,-0.00484414,-0.00356662,0.00609447,0.00670083,-0.00613785,-0.00516588
 ,-0.00828412,-0.04936711,0.01610471,0.03906089,0.00155997,-0.00576744,
 -0.02323898,0.01126927,-0.01135392,0.01163836,-0.00774143,0.01089486,0
 .01719095,-0.04101504,0.03068170,0.03475816,0.26789424,-0.00033430,0.0
 0313969,-0.01492808,-0.01452700,-0.00308184,0.00531798,-0.00177191,0.0
 0469480,0.00090004,0.00599320,-0.00151461,-0.00707918,-0.00244645,-0.0
 1216386,-0.00616890,-0.00460874,-0.00148714,0.00788884,-0.00150183,0.0
 0252177,0.00386066,0.00237358,-0.00154489,-0.00451495,0.00105819,-0.00
 337350,-0.00080809,0.00286849,0.00407809,0.01814436,0.01507031,-0.0044
 6494,0.01322730,0.05229322,-0.05410091,0.01862834,0.00261771,0.0065673
 7,0.00400727,-0.00170525,0.00276869,0.00031643,0.00149465,-0.00204250,
 -0.00141458,-0.00032812,0.00271917,-0.00429585,0.00579378,0.00157882,0
 .00462875,0.00224468,-0.00716325,0.00550339,-0.00694883,-0.17559953,0.
 10407549,-0.01121900,-0.04978112,-0.01798298,0.00396275,-0.01359765,0.
 01945377,-0.01153232,0.00825237,-0.01999593,0.03774705,-0.09312988,-0.
 05065016,-0.07659386,0.38672485,0.02442333,-0.01062074,-0.00036005,0.0
 1970149,0.01084420,-0.01825365,-0.00538051,-0.00468654,0.00825009,-0.0
 0196152,-0.00351401,0.00610977,0.00403699,0.01048673,0.00217672,0.0035
 6012,0.00415578,-0.00877677,-0.00252642,-0.00742206,-0.00634550,0.0040
 8998,-0.00554487,0.00576354,0.00237660,0.00411044,0.01124129,-0.025573
 80,0.01017611,-0.03391371,-0.02767818,0.01156795,-0.01013846,0.0142468
 4,0.01053517,-0.08071465,-0.00829862,0.00424699,0.00167725,0.00974174,
 0.00015328,-0.00233037,-0.00650405,-0.00019461,-0.00456840,0.00712946,
 0.00177744,0.00479787,-0.00727585,-0.00244371,0.00027399,0.00681592,0.
 00431289,0.00048622,0.04796224,0.05520817,-0.14267728,-0.01882331,0.05
 267658,0.04252216,0.01490460,0.01676945,-0.06185827,0.00221329,-0.0855
 6684,-0.00640237,0.01844678,0.00108610,-0.23400895,-0.07562714,-0.0781
 1393,0.52704954\\-0.00003985,-0.00003406,-0.00003722,0.00003457,-0.000
 02122,-0.00007272,0.00008817,-0.00002977,0.00001244,-0.00011025,0.0000
 6767,0.00010682,-0.00005982,0.00001297,0.00005660,0.00001060,-0.000020
 63,-0.00005339,-0.00005540,0.00004028,0.00002443,0.00000732,0.00002309
 ,0.00007949,0.00008870,0.00002372,0.00001602,-0.00007471,-0.00006213,-
 0.00013594,-0.00003570,-0.00001291,-0.00007429,-0.00000604,0.00001567,
 0.00005374,-0.00004522,-0.00000112,0.00002558,-0.00001948,0.00004370,0
 .00009295,0.00006131,-0.00001602,0.00005130,-0.00002880,-0.00000250,-0
 .00004053,0.00000992,-0.00004580,-0.00009816,0.00007747,0.00001826,-0.
 00002739,-0.00007362,0.00004045,-0.00001347,0.00004567,0.00007837,0.00
 002901,0.00008022,-0.00003838,-0.00002179,-0.00007377,-0.00003751,-0.0
 0001079,0.00004790,-0.00008044,-0.00001022,0.00007080,0.00003833,0.000
 04752\\\@


 ABSOLUTISM, OBSOLETISM -- IF IT WORKS, IT'S OUT OF DATE

                          -- STAFFORD BEER
 Job cpu time:       0 days  3 hours 25 minutes 32.5 seconds.
 Elapsed time:       0 days  0 hours 51 minutes 23.5 seconds.
 File lengths (MBytes):  RWF=    366 Int=      0 D2E=      0 Chk=     13 Scr=      1
 Normal termination of Gaussian 16 at Sat May  5 13:01:41 2018.
