 Entering Gaussian System, Link 0=g16
 Input=C20_Ih_1.gjf
 Output=C20_Ih_1.log
 Initial command:
 /export/share/g16/l1.exe "/tmp/lmy/Gau-1806.inp" -scrdir="/tmp/lmy/"
 Entering Link 1 = /export/share/g16/l1.exe PID=      1807.
  
 Copyright (c) 1988,1990,1992,1993,1995,1998,2003,2009,2016,
            Gaussian, Inc.  All Rights Reserved.
  
 This is part of the Gaussian(R) 16 program.  It is based on
 the Gaussian(R) 09 system (copyright 2009, Gaussian, Inc.),
 the Gaussian(R) 03 system (copyright 2003, Gaussian, Inc.),
 the Gaussian(R) 98 system (copyright 1998, Gaussian, Inc.),
 the Gaussian(R) 94 system (copyright 1995, Gaussian, Inc.),
 the Gaussian 92(TM) system (copyright 1992, Gaussian, Inc.),
 the Gaussian 90(TM) system (copyright 1990, Gaussian, Inc.),
 the Gaussian 88(TM) system (copyright 1988, Gaussian, Inc.),
 the Gaussian 86(TM) system (copyright 1986, Carnegie Mellon
 University), and the Gaussian 82(TM) system (copyright 1983,
 Carnegie Mellon University). Gaussian is a federally registered
 trademark of Gaussian, Inc.
  
 This software contains proprietary and confidential information,
 including trade secrets, belonging to Gaussian, Inc.
  
 This software is provided under written license and may be
 used, copied, transmitted, or stored only in accord with that
 written license.
  
 The following legend is applicable only to US Government
 contracts under FAR:
  
                    RESTRICTED RIGHTS LEGEND
  
 Use, reproduction and disclosure by the US Government is
 subject to restrictions as set forth in subparagraphs (a)
 and (c) of the Commercial Computer Software - Restricted
 Rights clause in FAR 52.227-19.
  
 Gaussian, Inc.
 340 Quinnipiac St., Bldg. 40, Wallingford CT 06492
  
  
 ---------------------------------------------------------------
 Warning -- This program may not be used in any manner that
 competes with the business of Gaussian, Inc. or will provide
 assistance to any competitor of Gaussian, Inc.  The licensee
 of this program is prohibited from giving any competitor of
 Gaussian, Inc. access to this program.  By using this program,
 the user acknowledges that Gaussian, Inc. is engaged in the
 business of creating and licensing software in the field of
 computational chemistry and represents and warrants to the
 licensee that it is not a competitor of Gaussian, Inc. and that
 it will not use this program in any manner prohibited above.
 ---------------------------------------------------------------
  

 Cite this work as:
 Gaussian 16, Revision A.03,
 M. J. Frisch, G. W. Trucks, H. B. Schlegel, G. E. Scuseria, 
 M. A. Robb, J. R. Cheeseman, G. Scalmani, V. Barone, 
 G. A. Petersson, H. Nakatsuji, X. Li, M. Caricato, A. V. Marenich, 
 J. Bloino, B. G. Janesko, R. Gomperts, B. Mennucci, H. P. Hratchian, 
 J. V. Ortiz, A. F. Izmaylov, J. L. Sonnenberg, D. Williams-Young, 
 F. Ding, F. Lipparini, F. Egidi, J. Goings, B. Peng, A. Petrone, 
 T. Henderson, D. Ranasinghe, V. G. Zakrzewski, J. Gao, N. Rega, 
 G. Zheng, W. Liang, M. Hada, M. Ehara, K. Toyota, R. Fukuda, 
 J. Hasegawa, M. Ishida, T. Nakajima, Y. Honda, O. Kitao, H. Nakai, 
 T. Vreven, K. Throssell, J. A. Montgomery, Jr., J. E. Peralta, 
 F. Ogliaro, M. J. Bearpark, J. J. Heyd, E. N. Brothers, K. N. Kudin, 
 V. N. Staroverov, T. A. Keith, R. Kobayashi, J. Normand, 
 K. Raghavachari, A. P. Rendell, J. C. Burant, S. S. Iyengar, 
 J. Tomasi, M. Cossi, J. M. Millam, M. Klene, C. Adamo, R. Cammi, 
 J. W. Ochterski, R. L. Martin, K. Morokuma, O. Farkas, 
 J. B. Foresman, and D. J. Fox, Gaussian, Inc., Wallingford CT, 2016.
 
 ******************************************
 Gaussian 16:  ES64L-G16RevA.03 25-Dec-2016
                 5-May-2018 
 ******************************************
 %rwf=/tmp/lmy/C20_Ih_1.rwf
 %nosave
 %chk=C20_Ih_1.chk
 %mem=8GB
 %nprocshared=4
 Will use up to    4 processors via shared memory.
 ----------------------------------------------------------------------
 # opt freq b3lyp/6-31g(d,p) nosymm empiricaldispersion=gd3 guess=check
  geom=check
 ----------------------------------------------------------------------
 1/18=20,19=15,26=3,29=2,38=1/1,3;
 2/9=110,12=2,15=1,40=1/2;
 3/5=1,6=6,7=101,11=2,14=-4,25=1,30=1,71=1,74=-5,116=-2,124=31/1,2,3;
 4/5=1/1;
 5/5=2,38=6/2;
 6/7=2,8=2,9=2,10=2,28=1/1;
 7/30=1/1,2,3,16;
 1/18=20,19=15,26=3/3(2);
 2/9=110,15=1/2;
 99//99;
 2/9=110,15=1/2;
 3/5=1,6=6,7=101,11=2,14=-2,25=1,30=1,71=1,74=-5,124=31/1,2,3;
 4/5=5,16=3,69=1/1;
 5/5=2,38=5/2;
 7/30=1/1,2,3,16;
 1/18=20,19=15,26=3/3(-5);
 2/9=110,15=1/2;
 6/7=2,8=2,9=2,10=2,19=2,28=1/1;
 99/9=1/99;
 ----------
 [No Title]
 ----------
 Structure from the checkpoint file:  "C20_Ih_1.chk"
 Charge =  0 Multiplicity = 1
 Redundant internal coordinates found in file.  (old form).
 C,0,1.1659408593,1.7227883993,0.1958769628
 C,0,1.019886217,0.9948403088,1.5326025332
 C,0,1.4669564868,-0.3796601721,1.3098486981
 C,0,0.3848090415,-1.3260171558,1.5707566677
 C,0,0.1287157614,-2.0714184171,0.2599863061
 C,0,-1.1659408842,-1.7227884724,-0.1958769841
 C,0,-1.0198862379,-0.9948403535,-1.53260262
 C,0,-1.4669564776,0.379660236,-1.3098487271
 C,0,-0.3848089837,1.3260171064,-1.5707565736
 C,0,-0.1287157235,2.0714183377,-0.2599863099
 C,0,1.6950745713,0.7496442745,-0.7570717416
 C,0,0.7638761349,0.5515207348,-1.8661903642
 C,0,0.3598940623,-0.9219443496,-1.8408029163
 C,0,1.0705233452,-1.5323272482,-0.7182350498
 C,0,1.8937383202,-0.5197825196,-0.0740343136
 C,0,-0.3598940431,0.9219443831,1.8408029406
 C,0,-0.7638761127,-0.5515206945,1.8661903672
 C,0,-1.6950746531,-0.7496442805,0.7570718024
 C,0,-1.8937383662,0.5197825962,0.0740342992
 C,0,-1.0705233179,1.5323272865,0.7182350229
 Recover connectivity data from disk.

 GradGradGradGradGradGradGradGradGradGradGradGradGradGradGradGradGradGrad
 Berny optimization.
 Initialization pass.
                           ----------------------------
                           !    Initial Parameters    !
                           ! (Angstroms and Degrees)  !
 --------------------------                            --------------------------
 ! Name  Definition              Value          Derivative Info.                !
 --------------------------------------------------------------------------------
 ! R1    R(1,2)                  1.5291         estimate D2E/DX2                !
 ! R2    R(1,10)                 1.4162         estimate D2E/DX2                !
 ! R3    R(1,11)                 1.4612         estimate D2E/DX2                !
 ! R4    R(2,3)                  1.4624         estimate D2E/DX2                !
 ! R5    R(2,16)                 1.4157         estimate D2E/DX2                !
 ! R6    R(3,4)                  1.4611         estimate D2E/DX2                !
 ! R7    R(3,15)                 1.455          estimate D2E/DX2                !
 ! R8    R(4,5)                  1.5295         estimate D2E/DX2                !
 ! R9    R(4,17)                 1.4165         estimate D2E/DX2                !
 ! R10   R(5,6)                  1.4162         estimate D2E/DX2                !
 ! R11   R(5,14)                 1.461          estimate D2E/DX2                !
 ! R12   R(6,7)                  1.5291         estimate D2E/DX2                !
 ! R13   R(6,18)                 1.4612         estimate D2E/DX2                !
 ! R14   R(7,8)                  1.4624         estimate D2E/DX2                !
 ! R15   R(7,13)                 1.4157         estimate D2E/DX2                !
 ! R16   R(8,9)                  1.4611         estimate D2E/DX2                !
 ! R17   R(8,19)                 1.455          estimate D2E/DX2                !
 ! R18   R(9,10)                 1.5295         estimate D2E/DX2                !
 ! R19   R(9,12)                 1.4165         estimate D2E/DX2                !
 ! R20   R(10,20)                1.461          estimate D2E/DX2                !
 ! R21   R(11,12)                1.4617         estimate D2E/DX2                !
 ! R22   R(11,15)                1.4551         estimate D2E/DX2                !
 ! R23   R(12,13)                1.5281         estimate D2E/DX2                !
 ! R24   R(13,14)                1.4621         estimate D2E/DX2                !
 ! R25   R(14,15)                1.4553         estimate D2E/DX2                !
 ! R26   R(16,17)                1.5281         estimate D2E/DX2                !
 ! R27   R(16,20)                1.4621         estimate D2E/DX2                !
 ! R28   R(17,18)                1.4617         estimate D2E/DX2                !
 ! R29   R(18,19)                1.4551         estimate D2E/DX2                !
 ! R30   R(19,20)                1.4553         estimate D2E/DX2                !
 ! A1    A(2,1,10)             108.1367         estimate D2E/DX2                !
 ! A2    A(2,1,11)             106.7179         estimate D2E/DX2                !
 ! A3    A(10,1,11)            106.5633         estimate D2E/DX2                !
 ! A4    A(1,2,3)              106.564          estimate D2E/DX2                !
 ! A5    A(1,2,16)             107.9347         estimate D2E/DX2                !
 ! A6    A(3,2,16)             106.4224         estimate D2E/DX2                !
 ! A7    A(2,3,4)              110.8025         estimate D2E/DX2                !
 ! A8    A(2,3,15)             108.9693         estimate D2E/DX2                !
 ! A9    A(4,3,15)             108.949          estimate D2E/DX2                !
 ! A10   A(3,4,5)              106.6571         estimate D2E/DX2                !
 ! A11   A(3,4,17)             106.4816         estimate D2E/DX2                !
 ! A12   A(5,4,17)             108.0243         estimate D2E/DX2                !
 ! A13   A(4,5,6)              107.9969         estimate D2E/DX2                !
 ! A14   A(4,5,14)             106.6214         estimate D2E/DX2                !
 ! A15   A(6,5,14)             106.4367         estimate D2E/DX2                !
 ! A16   A(5,6,7)              108.1367         estimate D2E/DX2                !
 ! A17   A(5,6,18)             106.5633         estimate D2E/DX2                !
 ! A18   A(7,6,18)             106.7179         estimate D2E/DX2                !
 ! A19   A(6,7,8)              106.564          estimate D2E/DX2                !
 ! A20   A(6,7,13)             107.9347         estimate D2E/DX2                !
 ! A21   A(8,7,13)             106.4224         estimate D2E/DX2                !
 ! A22   A(7,8,9)              110.8025         estimate D2E/DX2                !
 ! A23   A(7,8,19)             108.9693         estimate D2E/DX2                !
 ! A24   A(9,8,19)             108.949          estimate D2E/DX2                !
 ! A25   A(8,9,10)             106.6571         estimate D2E/DX2                !
 ! A26   A(8,9,12)             106.4816         estimate D2E/DX2                !
 ! A27   A(10,9,12)            108.0243         estimate D2E/DX2                !
 ! A28   A(1,10,9)             107.9969         estimate D2E/DX2                !
 ! A29   A(1,10,20)            106.4367         estimate D2E/DX2                !
 ! A30   A(9,10,20)            106.6214         estimate D2E/DX2                !
 ! A31   A(1,11,12)            110.7588         estimate D2E/DX2                !
 ! A32   A(1,11,15)            108.9234         estimate D2E/DX2                !
 ! A33   A(12,11,15)           108.9598         estimate D2E/DX2                !
 ! A34   A(9,12,11)            106.5136         estimate D2E/DX2                !
 ! A35   A(9,12,13)            108.0211         estimate D2E/DX2                !
 ! A36   A(11,12,13)           106.6499         estimate D2E/DX2                !
 ! A37   A(7,13,12)            108.1163         estimate D2E/DX2                !
 ! A38   A(7,13,14)            106.5629         estimate D2E/DX2                !
 ! A39   A(12,13,14)           106.6675         estimate D2E/DX2                !
 ! A40   A(5,14,13)            110.7811         estimate D2E/DX2                !
 ! A41   A(5,14,15)            108.9648         estimate D2E/DX2                !
 ! A42   A(13,14,15)           108.9253         estimate D2E/DX2                !
 ! A43   A(3,15,11)            108.8082         estimate D2E/DX2                !
 ! A44   A(3,15,14)            108.7907         estimate D2E/DX2                !
 ! A45   A(11,15,14)           108.7811         estimate D2E/DX2                !
 ! A46   A(2,16,17)            108.1163         estimate D2E/DX2                !
 ! A47   A(2,16,20)            106.5629         estimate D2E/DX2                !
 ! A48   A(17,16,20)           106.6675         estimate D2E/DX2                !
 ! A49   A(4,17,16)            108.0212         estimate D2E/DX2                !
 ! A50   A(4,17,18)            106.5136         estimate D2E/DX2                !
 ! A51   A(16,17,18)           106.6499         estimate D2E/DX2                !
 ! A52   A(6,18,17)            110.7588         estimate D2E/DX2                !
 ! A53   A(6,18,19)            108.9234         estimate D2E/DX2                !
 ! A54   A(17,18,19)           108.9598         estimate D2E/DX2                !
 ! A55   A(8,19,18)            108.8082         estimate D2E/DX2                !
 ! A56   A(8,19,20)            108.7907         estimate D2E/DX2                !
 ! A57   A(18,19,20)           108.7811         estimate D2E/DX2                !
 ! A58   A(10,20,16)           110.7811         estimate D2E/DX2                !
 ! A59   A(10,20,19)           108.9648         estimate D2E/DX2                !
 ! A60   A(16,20,19)           108.9253         estimate D2E/DX2                !
 ! D1    D(10,1,2,3)           114.1783         estimate D2E/DX2                !
 ! D2    D(10,1,2,16)            0.2065         estimate D2E/DX2                !
 ! D3    D(11,1,2,3)            -0.1271         estimate D2E/DX2                !
 ! D4    D(11,1,2,16)         -114.099          estimate D2E/DX2                !
 ! D5    D(2,1,10,9)          -116.6224         estimate D2E/DX2                !
 ! D6    D(2,1,10,20)           -2.4543         estimate D2E/DX2                !
 ! D7    D(11,1,10,9)           -2.2148         estimate D2E/DX2                !
 ! D8    D(11,1,10,20)         111.9532         estimate D2E/DX2                !
 ! D9    D(2,1,11,12)          119.1339         estimate D2E/DX2                !
 ! D10   D(2,1,11,15)           -0.6852         estimate D2E/DX2                !
 ! D11   D(10,1,11,12)           3.7663         estimate D2E/DX2                !
 ! D12   D(10,1,11,15)        -116.0527         estimate D2E/DX2                !
 ! D13   D(1,2,3,4)           -118.9686         estimate D2E/DX2                !
 ! D14   D(1,2,3,15)             0.8931         estimate D2E/DX2                !
 ! D15   D(16,2,3,4)            -3.9701         estimate D2E/DX2                !
 ! D16   D(16,2,3,15)          115.8915         estimate D2E/DX2                !
 ! D17   D(1,2,16,17)          116.473          estimate D2E/DX2                !
 ! D18   D(1,2,16,20)            2.1335         estimate D2E/DX2                !
 ! D19   D(3,2,16,17)            2.407          estimate D2E/DX2                !
 ! D20   D(3,2,16,20)         -111.9325         estimate D2E/DX2                !
 ! D21   D(2,3,4,5)            119.1031         estimate D2E/DX2                !
 ! D22   D(2,3,4,17)             3.9313         estimate D2E/DX2                !
 ! D23   D(15,3,4,5)            -0.7707         estimate D2E/DX2                !
 ! D24   D(15,3,4,17)         -115.9425         estimate D2E/DX2                !
 ! D25   D(2,3,15,11)           -1.3411         estimate D2E/DX2                !
 ! D26   D(2,3,15,14)         -119.7099         estimate D2E/DX2                !
 ! D27   D(4,3,15,11)          119.6613         estimate D2E/DX2                !
 ! D28   D(4,3,15,14)            1.2924         estimate D2E/DX2                !
 ! D29   D(3,4,5,6)           -114.0694         estimate D2E/DX2                !
 ! D30   D(3,4,5,14)            -0.0238         estimate D2E/DX2                !
 ! D31   D(17,4,5,6)             0.0583         estimate D2E/DX2                !
 ! D32   D(17,4,5,14)          114.1039         estimate D2E/DX2                !
 ! D33   D(3,4,17,16)           -2.3099         estimate D2E/DX2                !
 ! D34   D(3,4,17,18)          111.9399         estimate D2E/DX2                !
 ! D35   D(5,4,17,16)         -116.554          estimate D2E/DX2                !
 ! D36   D(5,4,17,18)           -2.3041         estimate D2E/DX2                !
 ! D37   D(4,5,6,7)            116.6224         estimate D2E/DX2                !
 ! D38   D(4,5,6,18)             2.2148         estimate D2E/DX2                !
 ! D39   D(14,5,6,7)             2.4544         estimate D2E/DX2                !
 ! D40   D(14,5,6,18)         -111.9532         estimate D2E/DX2                !
 ! D41   D(4,5,14,13)         -119.0069         estimate D2E/DX2                !
 ! D42   D(4,5,14,15)            0.8095         estimate D2E/DX2                !
 ! D43   D(6,5,14,13)           -3.9041         estimate D2E/DX2                !
 ! D44   D(6,5,14,15)          115.9123         estimate D2E/DX2                !
 ! D45   D(5,6,7,8)           -114.1783         estimate D2E/DX2                !
 ! D46   D(5,6,7,13)            -0.2065         estimate D2E/DX2                !
 ! D47   D(18,6,7,8)             0.1271         estimate D2E/DX2                !
 ! D48   D(18,6,7,13)          114.099          estimate D2E/DX2                !
 ! D49   D(5,6,18,17)           -3.7663         estimate D2E/DX2                !
 ! D50   D(5,6,18,19)          116.0527         estimate D2E/DX2                !
 ! D51   D(7,6,18,17)         -119.1338         estimate D2E/DX2                !
 ! D52   D(7,6,18,19)            0.6852         estimate D2E/DX2                !
 ! D53   D(6,7,8,9)            118.9686         estimate D2E/DX2                !
 ! D54   D(6,7,8,19)            -0.8931         estimate D2E/DX2                !
 ! D55   D(13,7,8,9)             3.9701         estimate D2E/DX2                !
 ! D56   D(13,7,8,19)         -115.8915         estimate D2E/DX2                !
 ! D57   D(6,7,13,12)         -116.473          estimate D2E/DX2                !
 ! D58   D(6,7,13,14)           -2.1335         estimate D2E/DX2                !
 ! D59   D(8,7,13,12)           -2.407          estimate D2E/DX2                !
 ! D60   D(8,7,13,14)          111.9325         estimate D2E/DX2                !
 ! D61   D(7,8,9,10)          -119.1031         estimate D2E/DX2                !
 ! D62   D(7,8,9,12)            -3.9312         estimate D2E/DX2                !
 ! D63   D(19,8,9,10)            0.7707         estimate D2E/DX2                !
 ! D64   D(19,8,9,12)          115.9425         estimate D2E/DX2                !
 ! D65   D(7,8,19,18)            1.3411         estimate D2E/DX2                !
 ! D66   D(7,8,19,20)          119.7099         estimate D2E/DX2                !
 ! D67   D(9,8,19,18)         -119.6613         estimate D2E/DX2                !
 ! D68   D(9,8,19,20)           -1.2924         estimate D2E/DX2                !
 ! D69   D(8,9,10,1)           114.0694         estimate D2E/DX2                !
 ! D70   D(8,9,10,20)            0.0238         estimate D2E/DX2                !
 ! D71   D(12,9,10,1)           -0.0583         estimate D2E/DX2                !
 ! D72   D(12,9,10,20)        -114.1039         estimate D2E/DX2                !
 ! D73   D(8,9,12,11)         -111.9399         estimate D2E/DX2                !
 ! D74   D(8,9,12,13)            2.3099         estimate D2E/DX2                !
 ! D75   D(10,9,12,11)           2.3041         estimate D2E/DX2                !
 ! D76   D(10,9,12,13)         116.554          estimate D2E/DX2                !
 ! D77   D(1,10,20,16)           3.9041         estimate D2E/DX2                !
 ! D78   D(1,10,20,19)        -115.9123         estimate D2E/DX2                !
 ! D79   D(9,10,20,16)         119.0069         estimate D2E/DX2                !
 ! D80   D(9,10,20,19)          -0.8095         estimate D2E/DX2                !
 ! D81   D(1,11,12,9)           -3.8014         estimate D2E/DX2                !
 ! D82   D(1,11,12,13)        -118.9812         estimate D2E/DX2                !
 ! D83   D(15,11,12,9)         115.9959         estimate D2E/DX2                !
 ! D84   D(15,11,12,13)          0.816          estimate D2E/DX2                !
 ! D85   D(1,11,15,3)            1.2572         estimate D2E/DX2                !
 ! D86   D(1,11,15,14)         119.6322         estimate D2E/DX2                !
 ! D87   D(12,11,15,3)        -119.6706         estimate D2E/DX2                !
 ! D88   D(12,11,15,14)         -1.2956         estimate D2E/DX2                !
 ! D89   D(9,12,13,7)            0.0645         estimate D2E/DX2                !
 ! D90   D(9,12,13,14)        -114.2059         estimate D2E/DX2                !
 ! D91   D(11,12,13,7)         114.224          estimate D2E/DX2                !
 ! D92   D(11,12,13,14)         -0.0464         estimate D2E/DX2                !
 ! D93   D(7,13,14,5)            3.7797         estimate D2E/DX2                !
 ! D94   D(7,13,14,15)        -116.0603         estimate D2E/DX2                !
 ! D95   D(12,13,14,5)         119.1            estimate D2E/DX2                !
 ! D96   D(12,13,14,15)         -0.7401         estimate D2E/DX2                !
 ! D97   D(5,14,15,3)           -1.3083         estimate D2E/DX2                !
 ! D98   D(5,14,15,11)        -119.6943         estimate D2E/DX2                !
 ! D99   D(13,14,15,3)         119.6508         estimate D2E/DX2                !
 ! D100  D(13,14,15,11)          1.2648         estimate D2E/DX2                !
 ! D101  D(2,16,17,4)           -0.0644         estimate D2E/DX2                !
 ! D102  D(2,16,17,18)        -114.224          estimate D2E/DX2                !
 ! D103  D(20,16,17,4)         114.2059         estimate D2E/DX2                !
 ! D104  D(20,16,17,18)          0.0464         estimate D2E/DX2                !
 ! D105  D(2,16,20,10)          -3.7797         estimate D2E/DX2                !
 ! D106  D(2,16,20,19)         116.0603         estimate D2E/DX2                !
 ! D107  D(17,16,20,10)       -119.1            estimate D2E/DX2                !
 ! D108  D(17,16,20,19)          0.7401         estimate D2E/DX2                !
 ! D109  D(4,17,18,6)            3.8013         estimate D2E/DX2                !
 ! D110  D(4,17,18,19)        -115.9959         estimate D2E/DX2                !
 ! D111  D(16,17,18,6)         118.9812         estimate D2E/DX2                !
 ! D112  D(16,17,18,19)         -0.816          estimate D2E/DX2                !
 ! D113  D(6,18,19,8)           -1.2572         estimate D2E/DX2                !
 ! D114  D(6,18,19,20)        -119.6322         estimate D2E/DX2                !
 ! D115  D(17,18,19,8)         119.6706         estimate D2E/DX2                !
 ! D116  D(17,18,19,20)          1.2956         estimate D2E/DX2                !
 ! D117  D(8,19,20,10)           1.3083         estimate D2E/DX2                !
 ! D118  D(8,19,20,16)        -119.6508         estimate D2E/DX2                !
 ! D119  D(18,19,20,10)        119.6943         estimate D2E/DX2                !
 ! D120  D(18,19,20,16)         -1.2648         estimate D2E/DX2                !
 --------------------------------------------------------------------------------
 Trust Radius=3.00D-01 FncErr=1.00D-07 GrdErr=1.00D-06 EigMax=2.50D+02 EigMin=1.00D-04
 Number of steps in this run=    120 maximum allowed number of steps=    120.
 GradGradGradGradGradGradGradGradGradGradGradGradGradGradGradGradGradGrad

                          Input orientation:                          
 ---------------------------------------------------------------------
 Center     Atomic      Atomic             Coordinates (Angstroms)
 Number     Number       Type             X           Y           Z
 ---------------------------------------------------------------------
      1          6           0        1.165941    1.722788    0.195877
      2          6           0        1.019886    0.994840    1.532603
      3          6           0        1.466956   -0.379660    1.309849
      4          6           0        0.384809   -1.326017    1.570757
      5          6           0        0.128716   -2.071418    0.259986
      6          6           0       -1.165941   -1.722788   -0.195877
      7          6           0       -1.019886   -0.994840   -1.532603
      8          6           0       -1.466956    0.379660   -1.309849
      9          6           0       -0.384809    1.326017   -1.570757
     10          6           0       -0.128716    2.071418   -0.259986
     11          6           0        1.695075    0.749644   -0.757072
     12          6           0        0.763876    0.551521   -1.866190
     13          6           0        0.359894   -0.921944   -1.840803
     14          6           0        1.070523   -1.532327   -0.718235
     15          6           0        1.893738   -0.519783   -0.074034
     16          6           0       -0.359894    0.921944    1.840803
     17          6           0       -0.763876   -0.551521    1.866190
     18          6           0       -1.695075   -0.749644    0.757072
     19          6           0       -1.893738    0.519783    0.074034
     20          6           0       -1.070523    1.532327    0.718235
 ---------------------------------------------------------------------
                    Distance matrix (angstroms):
                    1          2          3          4          5
     1  C    0.000000
     2  C    1.529077   0.000000
     3  C    2.398298   1.462444   0.000000
     4  C    3.434483   2.406483   1.461064   0.000000
     5  C    3.933949   3.437394   2.398988   1.529485   0.000000
     6  C    4.178893   3.892427   3.317130   2.383956   1.416153
     7  C    3.892427   4.185091   3.826534   3.422526   2.385725
     8  C    3.317130   3.826534   4.005899   3.825736   3.319388
     9  C    2.383956   3.422526   3.825736   4.182667   3.893314
    10  C    1.416153   2.385725   3.319388   3.893314   4.183269
    11  C    1.461199   2.399710   2.366332   3.382891   3.383235
    12  C    2.405337   3.437131   3.383584   3.934647   3.435675
    13  C    3.434005   3.935672   3.383233   3.435496   2.405837
    14  C    3.382378   3.384584   2.366205   2.398385   1.461006
    15  C    2.373113   2.374654   1.454960   2.373230   2.373699
    16  C    2.382290   1.415661   2.305096   2.383451   3.420225
    17  C    3.418570   2.384181   2.305573   1.416546   2.384680
    18  C    3.822731   3.318989   3.231237   2.306557   2.306598
    19  C    3.289940   3.292766   3.691951   3.292253   3.292297
    20  C    2.304540   2.306924   3.231796   3.318873   3.825591
                    6          7          8          9         10
     6  C    0.000000
     7  C    1.529077   0.000000
     8  C    2.398298   1.462444   0.000000
     9  C    3.434483   2.406483   1.461064   0.000000
    10  C    3.933949   3.437394   2.398988   1.529485   0.000000
    11  C    3.822731   3.318989   3.231237   2.306557   2.306597
    12  C    3.418570   2.384182   2.305573   1.416546   2.384680
    13  C    2.382290   1.415661   2.305096   2.383451   3.420225
    14  C    2.304540   2.306924   3.231796   3.318873   3.825591
    15  C    3.289940   3.292766   3.691951   3.292253   3.292297
    16  C    3.434005   3.935673   3.383233   3.435496   2.405836
    17  C    2.405337   3.437131   3.383585   3.934647   3.435675
    18  C    1.461199   2.399710   2.366332   3.382891   3.383235
    19  C    2.373113   2.374654   1.454960   2.373230   2.373699
    20  C    3.382378   3.384584   2.366205   2.398385   1.461006
                   11         12         13         14         15
    11  C    0.000000
    12  C    1.461687   0.000000
    13  C    2.398205   1.528053   0.000000
    14  C    2.366214   2.398803   1.462094   0.000000
    15  C    1.455147   2.374048   2.374002   1.455309   0.000000
    16  C    3.316856   3.891256   4.179981   3.823378   3.289990
    17  C    3.823738   4.181076   3.891256   3.317568   3.290652
    18  C    4.004199   3.823738   3.316856   3.230736   3.690955
    19  C    3.690955   3.290653   3.289990   3.691300   3.930343
    20  C    3.230736   3.317568   3.823378   4.004951   3.691300
                   16         17         18         19         20
    16  C    0.000000
    17  C    1.528053   0.000000
    18  C    2.398205   1.461687   0.000000
    19  C    2.374002   2.374048   1.455147   0.000000
    20  C    1.462094   2.398803   2.366214   1.455309   0.000000
 Symmetry turned off by external request.
 Stoichiometry    C20
 Framework group  C1[X(C20)]
 Deg. of freedom    54
 Full point group                 C1      NOp   1
 Rotational constants (GHZ):           0.7652701           0.7650712           0.7209673
 Standard basis: 6-31G(d,p) (6D, 7F)
   300 basis functions,   560 primitive gaussians,   300 cartesian basis functions
    60 alpha electrons       60 beta electrons
       nuclear repulsion energy      1409.7386894448 Hartrees.
 NAtoms=   20 NActive=   20 NUniq=   20 SFac= 1.00D+00 NAtFMM=   60 NAOKFM=F Big=F
 Integral buffers will be    131072 words long.
 Raffenetti 2 integral format.
 Two-electron integral symmetry is turned off.
 Nuclear repulsion after empirical dispersion term =     1409.7134034740 Hartrees.
 One-electron integrals computed using PRISM.
 NBasis=   300 RedAO= T EigKep=  7.46D-04  NBF=   300
 NBsUse=   300 1.00D-06 EigRej= -1.00D+00 NBFU=   300
 Initial guess from the checkpoint file:  "C20_Ih_1.chk"
 B after Tr=     0.000000    0.000000    0.000000
         Rot=    1.000000    0.000000    0.000000    0.000000 Ang=   0.00 deg.
 Keep R1 ints in memory in canonical form, NReq=1032920064.
 Requested convergence on RMS density matrix=1.00D-08 within 128 cycles.
 Requested convergence on MAX density matrix=1.00D-06.
 Requested convergence on             energy=1.00D-06.
 No special actions if energy rises.
 SCF Done:  E(RB3LYP) =  -761.466105833     A.U. after   12 cycles
            NFock= 12  Conv=0.45D-08     -V/T= 2.0099

 **********************************************************************

            Population analysis using the SCF density.

 **********************************************************************

 Alpha  occ. eigenvalues --  -10.26419 -10.26419 -10.26412 -10.26412 -10.26410
 Alpha  occ. eigenvalues --  -10.26410 -10.26307 -10.26306 -10.24525 -10.24524
 Alpha  occ. eigenvalues --  -10.24509 -10.24508 -10.24491 -10.24491 -10.24459
 Alpha  occ. eigenvalues --  -10.24458 -10.24443 -10.24441 -10.24422 -10.24421
 Alpha  occ. eigenvalues --   -1.00627  -0.92454  -0.92350  -0.92349  -0.79750
 Alpha  occ. eigenvalues --   -0.79738  -0.79494  -0.78120  -0.78103  -0.66389
 Alpha  occ. eigenvalues --   -0.63985  -0.63968  -0.63605  -0.61097  -0.61084
 Alpha  occ. eigenvalues --   -0.59999  -0.49576  -0.48826  -0.48796  -0.48395
 Alpha  occ. eigenvalues --   -0.47878  -0.45154  -0.45138  -0.43609  -0.43572
 Alpha  occ. eigenvalues --   -0.42192  -0.40251  -0.40178  -0.40175  -0.37712
 Alpha  occ. eigenvalues --   -0.37150  -0.37139  -0.35833  -0.35819  -0.28125
 Alpha  occ. eigenvalues --   -0.28104  -0.26706  -0.25085  -0.25054  -0.18547
 Alpha virt. eigenvalues --   -0.11734  -0.11721  -0.11318  -0.07447  -0.07437
 Alpha virt. eigenvalues --   -0.06577  -0.03643  -0.02805  -0.02774  -0.01370
 Alpha virt. eigenvalues --    0.07717   0.07738   0.10954   0.17517   0.20642
 Alpha virt. eigenvalues --    0.20661   0.21572   0.21576   0.21602   0.22566
 Alpha virt. eigenvalues --    0.22586   0.23839   0.23846   0.23851   0.35802
 Alpha virt. eigenvalues --    0.35933   0.35943   0.36175   0.36767   0.38933
 Alpha virt. eigenvalues --    0.38986   0.40896   0.41953   0.41966   0.42408
 Alpha virt. eigenvalues --    0.43090   0.43097   0.48911   0.49028   0.49035
 Alpha virt. eigenvalues --    0.50219   0.50239   0.50405   0.50889   0.50906
 Alpha virt. eigenvalues --    0.50914   0.52443   0.52507   0.52537   0.52656
 Alpha virt. eigenvalues --    0.53425   0.53568   0.53574   0.54364   0.58879
 Alpha virt. eigenvalues --    0.59727   0.59737   0.60011   0.60168   0.60355
 Alpha virt. eigenvalues --    0.60370   0.61142   0.61165   0.61269   0.61401
 Alpha virt. eigenvalues --    0.61420   0.61796   0.61812   0.62220   0.62584
 Alpha virt. eigenvalues --    0.62594   0.70535   0.70588   0.72692   0.76005
 Alpha virt. eigenvalues --    0.76031   0.76603   0.76618   0.77018   0.78295
 Alpha virt. eigenvalues --    0.78671   0.78690   0.81064   0.82502   0.82533
 Alpha virt. eigenvalues --    0.83520   0.84565   0.84614   0.84637   0.84769
 Alpha virt. eigenvalues --    0.84788   0.88380   0.91596   0.92529   0.92537
 Alpha virt. eigenvalues --    0.93165   0.93169   0.93369   0.93909   0.94226
 Alpha virt. eigenvalues --    0.94239   1.01715   1.01718   1.02486   1.03196
 Alpha virt. eigenvalues --    1.03200   1.04556   1.04620   1.05815   1.06092
 Alpha virt. eigenvalues --    1.06803   1.06868   1.45491   1.56202   1.57399
 Alpha virt. eigenvalues --    1.57435   1.62938   1.63531   1.65203   1.65238
 Alpha virt. eigenvalues --    1.66076   1.66141   1.66515   1.66518   1.68083
 Alpha virt. eigenvalues --    1.68827   1.68874   1.71904   1.71954   1.71983
 Alpha virt. eigenvalues --    1.73352   1.75587   1.75601   1.77518   1.77537
 Alpha virt. eigenvalues --    1.78052   1.80466   1.80496   1.80802   1.80826
 Alpha virt. eigenvalues --    1.81142   1.82628   1.84890   1.84900   1.85347
 Alpha virt. eigenvalues --    1.86053   1.86065   1.87386   1.87869   1.90537
 Alpha virt. eigenvalues --    1.90553   1.93621   1.93666   1.97939   1.97954
 Alpha virt. eigenvalues --    1.98906   1.99003   1.99922   2.02220   2.02234
 Alpha virt. eigenvalues --    2.04315   2.04360   2.09757   2.11503   2.11523
 Alpha virt. eigenvalues --    2.29730   2.30131   2.30191   2.32035   2.39460
 Alpha virt. eigenvalues --    2.39484   2.41177   2.41272   2.41435   2.41926
 Alpha virt. eigenvalues --    2.44157   2.44555   2.46565   2.46570   2.48658
 Alpha virt. eigenvalues --    2.48696   2.50004   2.52335   2.53855   2.53869
 Alpha virt. eigenvalues --    2.55936   2.56195   2.56219   2.57040   2.57048
 Alpha virt. eigenvalues --    2.58626   2.61664   2.63946   2.63970   2.64081
 Alpha virt. eigenvalues --    2.67059   2.67154   2.67777   2.68789   2.68815
 Alpha virt. eigenvalues --    2.71636   2.71762   2.72413   2.72422   2.73584
 Alpha virt. eigenvalues --    2.73603   2.73834   2.74366   2.74393   2.76130
 Alpha virt. eigenvalues --    2.78803   2.78820   2.94383   2.96911   2.96977
 Alpha virt. eigenvalues --    2.98176   2.98196   3.02980   3.03031   3.03042
 Alpha virt. eigenvalues --    3.96384   4.14012   4.14026   4.16584   4.38235
 Alpha virt. eigenvalues --    4.38284   4.44073   4.44106   4.44126   4.79012
 Alpha virt. eigenvalues --    4.79024   4.79034   5.11918   5.12341   5.14161
 Alpha virt. eigenvalues --    5.14276   5.20005   5.20676   5.20720   5.20841
          Condensed to atoms (all electrons):
               1          2          3          4          5          6
     1  C    5.079418   0.415418  -0.061330   0.007876  -0.002582   0.002073
     2  C    0.415418   5.081918   0.471019  -0.098041   0.008131   0.010548
     3  C   -0.061330   0.471019   5.017363   0.472133  -0.061797  -0.002037
     4  C    0.007876  -0.098041   0.472133   5.081144   0.414887  -0.103435
     5  C   -0.002582   0.008131  -0.061797   0.414887   5.081244   0.536275
     6  C    0.002073   0.010548  -0.002037  -0.103435   0.536275   5.079419
     7  C    0.010548   0.001875   0.004676   0.007940  -0.104017   0.415418
     8  C   -0.002037   0.004676   0.008578   0.004591  -0.001845  -0.061330
     9  C   -0.103435   0.007940   0.004591   0.001955   0.010565   0.007876
    10  C    0.536275  -0.104017  -0.001845   0.010565   0.001924  -0.002582
    11  C    0.471831  -0.061731  -0.076333  -0.006935  -0.007043   0.004639
    12  C   -0.097382   0.007959  -0.007084  -0.002603   0.007991   0.007609
    13  C    0.007743  -0.002650  -0.006891   0.007877  -0.097725  -0.103547
    14  C   -0.007137  -0.006856  -0.076323  -0.061996   0.472055  -0.078110
    15  C   -0.071504  -0.071517   0.469953  -0.071300  -0.071806  -0.007262
    16  C   -0.103547   0.537212  -0.078687  -0.103777   0.007786   0.007743
    17  C    0.007609  -0.104061  -0.078097   0.536475  -0.103697  -0.097382
    18  C    0.004639  -0.001927  -0.009534  -0.078477  -0.077991   0.471831
    19  C   -0.007262  -0.006905   0.005450  -0.007167  -0.007015  -0.071504
    20  C   -0.078110  -0.078656  -0.009505  -0.001848   0.004551  -0.007137
               7          8          9         10         11         12
     1  C    0.010548  -0.002037  -0.103435   0.536275   0.471831  -0.097382
     2  C    0.001875   0.004676   0.007940  -0.104017  -0.061731   0.007959
     3  C    0.004676   0.008578   0.004591  -0.001845  -0.076333  -0.007084
     4  C    0.007940   0.004591   0.001955   0.010565  -0.006935  -0.002603
     5  C   -0.104017  -0.001845   0.010565   0.001924  -0.007043   0.007991
     6  C    0.415418  -0.061330   0.007876  -0.002582   0.004639   0.007609
     7  C    5.081918   0.471019  -0.098041   0.008131  -0.001927  -0.104061
     8  C    0.471019   5.017364   0.472134  -0.061797  -0.009534  -0.078097
     9  C   -0.098041   0.472134   5.081144   0.414887  -0.078477   0.536475
    10  C    0.008131  -0.061797   0.414887   5.081244  -0.077991  -0.103697
    11  C   -0.001927  -0.009534  -0.078477  -0.077991   5.017158   0.471392
    12  C   -0.104061  -0.078097   0.536475  -0.103697   0.471392   5.079994
    13  C    0.537212  -0.078688  -0.103777   0.007786  -0.061513   0.415914
    14  C   -0.078656  -0.009505  -0.001848   0.004551  -0.076443  -0.061238
    15  C   -0.006905   0.005450  -0.007168  -0.007015   0.470169  -0.071779
    16  C   -0.002650  -0.006891   0.007877  -0.097725  -0.002068   0.010516
    17  C    0.007959  -0.007084  -0.002603   0.007991   0.004678   0.002007
    18  C   -0.061730  -0.076333  -0.006935  -0.007043   0.008607   0.004678
    19  C   -0.071517   0.469953  -0.071300  -0.071806   0.005463  -0.007016
    20  C   -0.006856  -0.076323  -0.061996   0.472055  -0.009550  -0.002096
              13         14         15         16         17         18
     1  C    0.007743  -0.007137  -0.071504  -0.103547   0.007609   0.004639
     2  C   -0.002650  -0.006856  -0.071517   0.537212  -0.104061  -0.001927
     3  C   -0.006891  -0.076323   0.469953  -0.078687  -0.078097  -0.009534
     4  C    0.007877  -0.061996  -0.071300  -0.103777   0.536475  -0.078477
     5  C   -0.097725   0.472055  -0.071806   0.007786  -0.103697  -0.077991
     6  C   -0.103547  -0.078110  -0.007262   0.007743  -0.097382   0.471831
     7  C    0.537212  -0.078656  -0.006905  -0.002650   0.007959  -0.061730
     8  C   -0.078688  -0.009505   0.005450  -0.006891  -0.007084  -0.076333
     9  C   -0.103777  -0.001848  -0.007168   0.007877  -0.002603  -0.006935
    10  C    0.007786   0.004551  -0.007015  -0.097725   0.007991  -0.007043
    11  C   -0.061513  -0.076443   0.470169  -0.002068   0.004678   0.008607
    12  C    0.415914  -0.061238  -0.071779   0.010516   0.002007   0.004678
    13  C    5.079464   0.471184  -0.071274   0.002020   0.010516  -0.002068
    14  C    0.471184   5.017570   0.470077   0.004742  -0.002096  -0.009550
    15  C   -0.071274   0.470077   5.024103  -0.007176  -0.007016   0.005463
    16  C    0.002020   0.004742  -0.007176   5.079464   0.415914  -0.061513
    17  C    0.010516  -0.002096  -0.007016   0.415914   5.079994   0.471392
    18  C   -0.002068  -0.009550   0.005463  -0.061513   0.471392   5.017158
    19  C   -0.007176   0.005469   0.010031  -0.071274  -0.071779   0.470169
    20  C    0.004742   0.008602   0.005469   0.471184  -0.061238  -0.076443
              19         20
     1  C   -0.007262  -0.078110
     2  C   -0.006905  -0.078656
     3  C    0.005450  -0.009505
     4  C   -0.007167  -0.001848
     5  C   -0.007015   0.004551
     6  C   -0.071504  -0.007137
     7  C   -0.071517  -0.006856
     8  C    0.469953  -0.076323
     9  C   -0.071300  -0.061996
    10  C   -0.071806   0.472055
    11  C    0.005463  -0.009550
    12  C   -0.007016  -0.002096
    13  C   -0.007176   0.004742
    14  C    0.005469   0.008602
    15  C    0.010031   0.005469
    16  C   -0.071274   0.471184
    17  C   -0.071779  -0.061238
    18  C    0.470169  -0.076443
    19  C    5.024103   0.470077
    20  C    0.470077   5.017570
 Mulliken charges:
               1
     1  C   -0.009104
     2  C   -0.010337
     3  C    0.015701
     4  C   -0.009864
     5  C   -0.009889
     6  C   -0.009104
     7  C   -0.010337
     8  C    0.015701
     9  C   -0.009864
    10  C   -0.009889
    11  C    0.015609
    12  C   -0.009483
    13  C   -0.009150
    14  C    0.015509
    15  C    0.011007
    16  C   -0.009150
    17  C   -0.009483
    18  C    0.015609
    19  C    0.011007
    20  C    0.015509
 Sum of Mulliken charges =  -0.00000
 Mulliken charges with hydrogens summed into heavy atoms:
               1
     1  C   -0.009104
     2  C   -0.010337
     3  C    0.015701
     4  C   -0.009864
     5  C   -0.009889
     6  C   -0.009104
     7  C   -0.010337
     8  C    0.015701
     9  C   -0.009864
    10  C   -0.009889
    11  C    0.015609
    12  C   -0.009483
    13  C   -0.009150
    14  C    0.015509
    15  C    0.011007
    16  C   -0.009150
    17  C   -0.009483
    18  C    0.015609
    19  C    0.011007
    20  C    0.015509
 Electronic spatial extent (au):  <R**2>=           2051.1280
 Charge=             -0.0000 electrons
 Dipole moment (field-independent basis, Debye):
    X=              0.0000    Y=              0.0000    Z=              0.0000  Tot=              0.0000
 Quadrupole moment (field-independent basis, Debye-Ang):
   XX=           -107.1884   YY=           -111.6745   ZZ=           -112.0371
   XY=             -1.3120   XZ=             -0.2275   YZ=              0.0469
 Traceless Quadrupole moment (field-independent basis, Debye-Ang):
   XX=              3.1116   YY=             -1.3745   ZZ=             -1.7371
   XY=             -1.3120   XZ=             -0.2275   YZ=              0.0469
 Octapole moment (field-independent basis, Debye-Ang**2):
  XXX=              0.0000  YYY=              0.0000  ZZZ=              0.0000  XYY=              0.0000
  XXY=              0.0000  XXZ=              0.0000  XZZ=              0.0000  YZZ=              0.0000
  YYZ=             -0.0000  XYZ=              0.0000
 Hexadecapole moment (field-independent basis, Debye-Ang**3):
 XXXX=           -962.9087 YYYY=          -1094.1968 ZZZZ=          -1106.2846 XXXY=            -17.6105
 XXXZ=             -3.4101 YYYX=            -20.8421 YYYZ=              2.9743 ZZZX=             -0.9725
 ZZZY=              0.0504 XXYY=           -341.6011 XXZZ=           -342.2056 YYZZ=           -366.5889
 XXYZ=             -1.2423 YYXZ=             -3.2986 ZZXY=             -7.1283
 N-N= 1.409713403474D+03 E-N=-4.580645111323D+03  KE= 7.539676807587D+02
 Calling FoFJK, ICntrl=      2127 FMM=F ISym2X=0 I1Cent= 0 IOpClX= 0 NMat=1 NMatS=1 NMatT=0.
 -------------------------------------------------------------------
 Center     Atomic                   Forces (Hartrees/Bohr)
 Number     Number              X              Y              Z
 -------------------------------------------------------------------
      1        6          -0.006181287   -0.005626508   -0.000202611
      2        6          -0.005489434   -0.002877190   -0.005651079
      3        6          -0.009495441    0.002744137   -0.004758210
      4        6          -0.003760182    0.005048113   -0.005602322
      5        6          -0.002429579    0.007986778   -0.000478805
      6        6           0.006181289    0.005626517    0.000202639
      7        6           0.005489420    0.002877212    0.005651086
      8        6           0.009495416   -0.002744177    0.004758219
      9        6           0.003760166   -0.005048082    0.005602289
     10        6           0.002429573   -0.007986745    0.000478817
     11        6          -0.010208657   -0.001819655    0.003096269
     12        6          -0.005207663   -0.001466590    0.006688650
     13        6          -0.003204713    0.003927804    0.006462729
     14        6          -0.007858990    0.006940468    0.002873371
     15        6          -0.007588930    0.001977642    0.000163949
     16        6           0.003204717   -0.003927798   -0.006462754
     17        6           0.005207679    0.001466565   -0.006688661
     18        6           0.010208681    0.001819670   -0.003096300
     19        6           0.007588941   -0.001977671   -0.000163931
     20        6           0.007858995   -0.006940490   -0.002873345
 -------------------------------------------------------------------
 Cartesian Forces:  Max     0.010208681 RMS     0.005290953

 GradGradGradGradGradGradGradGradGradGradGradGradGradGradGradGradGradGrad
 Berny optimization.
 FormGI is forming the generalized inverse of G from B-inverse, IUseBI=4.
 Internal  Forces:  Max     0.010941417 RMS     0.003206513
 Search for a local minimum.
 Step number   1 out of a maximum of  120
 All quantities printed in internal units (Hartrees-Bohrs-Radians)
 Mixed Optimization -- RFO/linear search
 Second derivative matrix not updated -- first step.
 ITU=  0
     Eigenvalues ---    0.04971   0.05002   0.05276   0.05281   0.05372
     Eigenvalues ---    0.05375   0.05612   0.06527   0.06534   0.06629
     Eigenvalues ---    0.06991   0.06993   0.07179   0.07344   0.07622
     Eigenvalues ---    0.07626   0.07925   0.08075   0.08079   0.09487
     Eigenvalues ---    0.09615   0.09618   0.11664   0.11681   0.16187
     Eigenvalues ---    0.16258   0.16262   0.17073   0.17079   0.20422
     Eigenvalues ---    0.20516   0.20528   0.22230   0.27854   0.27902
     Eigenvalues ---    0.29035   0.30673   0.30705   0.31187   0.32684
     Eigenvalues ---    0.33170   0.33218   0.33543   0.34732   0.35292
     Eigenvalues ---    0.35324   0.35975   0.36045   0.36069   0.38259
     Eigenvalues ---    0.38302   0.39781   0.39843   0.42399
 RFO step:  Lambda=-6.01906632D-03 EMin= 4.97117662D-02
 Linear search not attempted -- first point.
 Iteration  1 RMS(Cart)=  0.01045782 RMS(Int)=  0.00004570
 Iteration  2 RMS(Cart)=  0.00003682 RMS(Int)=  0.00001218
 Iteration  3 RMS(Cart)=  0.00000000 RMS(Int)=  0.00001218
 Variable       Old X    -DE/DX   Delta X   Delta X   Delta X     New X
                                 (Linear)    (Quad)   (Total)
    R1        2.88954  -0.00721   0.00000  -0.02121  -0.02123   2.86831
    R2        2.67614  -0.01067   0.00000  -0.02403  -0.02404   2.65210
    R3        2.76127  -0.00806   0.00000  -0.02162  -0.02162   2.73965
    R4        2.76362  -0.00815   0.00000  -0.02206  -0.02205   2.74156
    R5        2.67521  -0.01070   0.00000  -0.02402  -0.02402   2.65119
    R6        2.76101  -0.00796   0.00000  -0.02148  -0.02148   2.73953
    R7        2.74948  -0.00720   0.00000  -0.02120  -0.02118   2.72830
    R8        2.89031  -0.00712   0.00000  -0.02101  -0.02102   2.86929
    R9        2.67688  -0.01094   0.00000  -0.02482  -0.02482   2.65206
   R10        2.67614  -0.01067   0.00000  -0.02403  -0.02404   2.65210
   R11        2.76090  -0.00801   0.00000  -0.02159  -0.02159   2.73931
   R12        2.88954  -0.00721   0.00000  -0.02121  -0.02123   2.86831
   R13        2.76127  -0.00806   0.00000  -0.02162  -0.02162   2.73965
   R14        2.76362  -0.00815   0.00000  -0.02206  -0.02205   2.74156
   R15        2.67521  -0.01070   0.00000  -0.02402  -0.02402   2.65119
   R16        2.76101  -0.00796   0.00000  -0.02148  -0.02148   2.73953
   R17        2.74948  -0.00720   0.00000  -0.02120  -0.02118   2.72830
   R18        2.89031  -0.00712   0.00000  -0.02101  -0.02102   2.86929
   R19        2.67688  -0.01094   0.00000  -0.02482  -0.02482   2.65206
   R20        2.76090  -0.00801   0.00000  -0.02159  -0.02159   2.73931
   R21        2.76219  -0.00797   0.00000  -0.02152  -0.02152   2.74067
   R22        2.74983  -0.00732   0.00000  -0.02148  -0.02147   2.72836
   R23        2.88760  -0.00705   0.00000  -0.02060  -0.02061   2.86699
   R24        2.76296  -0.00803   0.00000  -0.02171  -0.02171   2.74124
   R25        2.75014  -0.00734   0.00000  -0.02157  -0.02155   2.72858
   R26        2.88760  -0.00705   0.00000  -0.02060  -0.02061   2.86699
   R27        2.76296  -0.00803   0.00000  -0.02171  -0.02171   2.74124
   R28        2.76219  -0.00797   0.00000  -0.02152  -0.02152   2.74067
   R29        2.74983  -0.00732   0.00000  -0.02148  -0.02147   2.72836
   R30        2.75014  -0.00734   0.00000  -0.02157  -0.02155   2.72858
    A1        1.88734   0.00056   0.00000   0.00358   0.00357   1.89091
    A2        1.86258   0.00008   0.00000  -0.00030  -0.00029   1.86229
    A3        1.85988  -0.00124   0.00000  -0.00913  -0.00912   1.85076
    A4        1.85989   0.00008   0.00000  -0.00032  -0.00031   1.85958
    A5        1.88382   0.00051   0.00000   0.00333   0.00333   1.88714
    A6        1.85742  -0.00122   0.00000  -0.00906  -0.00905   1.84837
    A7        1.93387   0.00139   0.00000   0.01123   0.01122   1.94509
    A8        1.90187  -0.00019   0.00000   0.00047   0.00045   1.90232
    A9        1.90152  -0.00024   0.00000   0.00023   0.00020   1.90172
   A10        1.86152   0.00005   0.00000  -0.00039  -0.00038   1.86114
   A11        1.85845  -0.00123   0.00000  -0.00933  -0.00933   1.84913
   A12        1.88538   0.00055   0.00000   0.00348   0.00347   1.88885
   A13        1.88490   0.00052   0.00000   0.00344   0.00343   1.88834
   A14        1.86089   0.00009   0.00000  -0.00020  -0.00019   1.86070
   A15        1.85767  -0.00123   0.00000  -0.00913  -0.00913   1.84854
   A16        1.88734   0.00056   0.00000   0.00358   0.00357   1.89091
   A17        1.85988  -0.00124   0.00000  -0.00913  -0.00912   1.85076
   A18        1.86258   0.00008   0.00000  -0.00030  -0.00029   1.86229
   A19        1.85989   0.00008   0.00000  -0.00032  -0.00031   1.85958
   A20        1.88382   0.00051   0.00000   0.00333   0.00333   1.88714
   A21        1.85742  -0.00122   0.00000  -0.00906  -0.00905   1.84837
   A22        1.93387   0.00139   0.00000   0.01123   0.01122   1.94509
   A23        1.90187  -0.00019   0.00000   0.00047   0.00045   1.90232
   A24        1.90152  -0.00024   0.00000   0.00023   0.00020   1.90172
   A25        1.86152   0.00005   0.00000  -0.00039  -0.00038   1.86114
   A26        1.85845  -0.00123   0.00000  -0.00933  -0.00933   1.84913
   A27        1.88538   0.00055   0.00000   0.00348   0.00347   1.88885
   A28        1.88490   0.00052   0.00000   0.00344   0.00343   1.88834
   A29        1.85767  -0.00123   0.00000  -0.00913  -0.00913   1.84854
   A30        1.86089   0.00009   0.00000  -0.00020  -0.00019   1.86070
   A31        1.93311   0.00134   0.00000   0.01082   0.01082   1.94392
   A32        1.90107  -0.00020   0.00000   0.00036   0.00034   1.90141
   A33        1.90171  -0.00021   0.00000   0.00023   0.00021   1.90192
   A34        1.85901  -0.00118   0.00000  -0.00885  -0.00884   1.85017
   A35        1.88532   0.00057   0.00000   0.00380   0.00380   1.88912
   A36        1.86139   0.00003   0.00000  -0.00034  -0.00033   1.86106
   A37        1.88699   0.00048   0.00000   0.00308   0.00308   1.89006
   A38        1.85987  -0.00118   0.00000  -0.00896  -0.00895   1.85092
   A39        1.86170   0.00005   0.00000  -0.00045  -0.00044   1.86126
   A40        1.93350   0.00134   0.00000   0.01092   0.01091   1.94440
   A41        1.90179  -0.00021   0.00000   0.00025   0.00023   1.90202
   A42        1.90110  -0.00020   0.00000   0.00041   0.00039   1.90149
   A43        1.89906   0.00023   0.00000  -0.00040  -0.00040   1.89866
   A44        1.89876   0.00031   0.00000  -0.00008  -0.00008   1.89868
   A45        1.89859   0.00031   0.00000  -0.00004  -0.00004   1.89855
   A46        1.88698   0.00048   0.00000   0.00308   0.00308   1.89006
   A47        1.85987  -0.00118   0.00000  -0.00896  -0.00895   1.85092
   A48        1.86170   0.00005   0.00000  -0.00045  -0.00044   1.86126
   A49        1.88532   0.00057   0.00000   0.00380   0.00380   1.88912
   A50        1.85901  -0.00118   0.00000  -0.00885  -0.00884   1.85017
   A51        1.86139   0.00003   0.00000  -0.00034  -0.00033   1.86106
   A52        1.93311   0.00134   0.00000   0.01082   0.01082   1.94392
   A53        1.90107  -0.00020   0.00000   0.00036   0.00034   1.90141
   A54        1.90171  -0.00021   0.00000   0.00023   0.00021   1.90192
   A55        1.89906   0.00023   0.00000  -0.00040  -0.00040   1.89866
   A56        1.89876   0.00031   0.00000  -0.00008  -0.00008   1.89868
   A57        1.89859   0.00031   0.00000  -0.00004  -0.00004   1.89855
   A58        1.93350   0.00134   0.00000   0.01092   0.01091   1.94440
   A59        1.90179  -0.00021   0.00000   0.00025   0.00023   1.90202
   A60        1.90111  -0.00020   0.00000   0.00041   0.00039   1.90149
    D1        1.99279  -0.00115   0.00000  -0.00916  -0.00916   1.98363
    D2        0.00360  -0.00001   0.00000  -0.00014  -0.00014   0.00346
    D3       -0.00222  -0.00001   0.00000  -0.00017  -0.00017  -0.00239
    D4       -1.99140   0.00112   0.00000   0.00885   0.00884  -1.98256
    D5       -2.03544   0.00021   0.00000   0.00134   0.00135  -2.03410
    D6       -0.04284  -0.00005   0.00000  -0.00174  -0.00173  -0.04457
    D7       -0.03866  -0.00006   0.00000  -0.00182  -0.00182  -0.04047
    D8        1.95395  -0.00031   0.00000  -0.00490  -0.00490   1.94906
    D9        2.07928   0.00023   0.00000   0.00297   0.00300   2.08228
   D10       -0.01196  -0.00021   0.00000  -0.00418  -0.00418  -0.01613
   D11        0.06573   0.00014   0.00000   0.00333   0.00335   0.06908
   D12       -2.02550  -0.00030   0.00000  -0.00381  -0.00383  -2.02933
   D13       -2.07639  -0.00020   0.00000  -0.00303  -0.00306  -2.07945
   D14        0.01559   0.00023   0.00000   0.00445   0.00445   0.02004
   D15       -0.06929  -0.00015   0.00000  -0.00359  -0.00360  -0.07290
   D16        2.02269   0.00028   0.00000   0.00390   0.00391   2.02660
   D17        2.03284  -0.00021   0.00000  -0.00147  -0.00148   2.03136
   D18        0.03724   0.00008   0.00000   0.00200   0.00200   0.03923
   D19        0.04201   0.00005   0.00000   0.00174   0.00174   0.04375
   D20       -1.95359   0.00035   0.00000   0.00522   0.00521  -1.94838
   D21        2.07874   0.00023   0.00000   0.00311   0.00314   2.08188
   D22        0.06861   0.00016   0.00000   0.00370   0.00371   0.07233
   D23       -0.01345  -0.00023   0.00000  -0.00452  -0.00451  -0.01796
   D24       -2.02358  -0.00030   0.00000  -0.00393  -0.00394  -2.02752
   D25       -0.02341  -0.00037   0.00000  -0.00716  -0.00716  -0.03056
   D26       -2.08933  -0.00105   0.00000  -0.00684  -0.00684  -2.09617
   D27        2.08848   0.00106   0.00000   0.00695   0.00696   2.09544
   D28        0.02256   0.00038   0.00000   0.00728   0.00727   0.02983
   D29       -1.99089   0.00113   0.00000   0.00916   0.00915  -1.98173
   D30       -0.00042  -0.00000   0.00000   0.00015   0.00015  -0.00026
   D31        0.00102  -0.00001   0.00000  -0.00015  -0.00015   0.00087
   D32        1.99149  -0.00114   0.00000  -0.00915  -0.00915   1.98234
   D33       -0.04032  -0.00006   0.00000  -0.00203  -0.00202  -0.04233
   D34        1.95372  -0.00033   0.00000  -0.00496  -0.00496   1.94877
   D35       -2.03425   0.00022   0.00000   0.00136   0.00137  -2.03288
   D36       -0.04021  -0.00005   0.00000  -0.00158  -0.00157  -0.04178
   D37        2.03544  -0.00021   0.00000  -0.00134  -0.00135   2.03410
   D38        0.03866   0.00006   0.00000   0.00182   0.00182   0.04047
   D39        0.04284   0.00005   0.00000   0.00174   0.00173   0.04457
   D40       -1.95395   0.00031   0.00000   0.00490   0.00490  -1.94906
   D41       -2.07706  -0.00021   0.00000  -0.00310  -0.00313  -2.08019
   D42        0.01413   0.00023   0.00000   0.00426   0.00426   0.01839
   D43       -0.06814  -0.00016   0.00000  -0.00354  -0.00355  -0.07169
   D44        2.02305   0.00029   0.00000   0.00383   0.00384   2.02689
   D45       -1.99279   0.00115   0.00000   0.00916   0.00916  -1.98363
   D46       -0.00360   0.00001   0.00000   0.00014   0.00014  -0.00346
   D47        0.00222   0.00001   0.00000   0.00017   0.00017   0.00239
   D48        1.99140  -0.00112   0.00000  -0.00885  -0.00884   1.98256
   D49       -0.06573  -0.00014   0.00000  -0.00333  -0.00335  -0.06908
   D50        2.02550   0.00030   0.00000   0.00381   0.00383   2.02933
   D51       -2.07928  -0.00023   0.00000  -0.00297  -0.00300  -2.08228
   D52        0.01196   0.00021   0.00000   0.00418   0.00418   0.01613
   D53        2.07639   0.00020   0.00000   0.00303   0.00306   2.07945
   D54       -0.01559  -0.00023   0.00000  -0.00445  -0.00445  -0.02004
   D55        0.06929   0.00015   0.00000   0.00359   0.00360   0.07290
   D56       -2.02269  -0.00028   0.00000  -0.00390  -0.00391  -2.02660
   D57       -2.03284   0.00021   0.00000   0.00147   0.00148  -2.03136
   D58       -0.03724  -0.00008   0.00000  -0.00200  -0.00200  -0.03923
   D59       -0.04201  -0.00005   0.00000  -0.00174  -0.00174  -0.04375
   D60        1.95359  -0.00035   0.00000  -0.00522  -0.00521   1.94838
   D61       -2.07874  -0.00023   0.00000  -0.00311  -0.00314  -2.08188
   D62       -0.06861  -0.00016   0.00000  -0.00370  -0.00371  -0.07233
   D63        0.01345   0.00023   0.00000   0.00452   0.00451   0.01796
   D64        2.02358   0.00030   0.00000   0.00393   0.00394   2.02752
   D65        0.02341   0.00037   0.00000   0.00716   0.00716   0.03056
   D66        2.08933   0.00105   0.00000   0.00684   0.00684   2.09617
   D67       -2.08848  -0.00106   0.00000  -0.00695  -0.00696  -2.09544
   D68       -0.02256  -0.00038   0.00000  -0.00728  -0.00727  -0.02983
   D69        1.99089  -0.00113   0.00000  -0.00916  -0.00915   1.98173
   D70        0.00042   0.00000   0.00000  -0.00015  -0.00015   0.00026
   D71       -0.00102   0.00001   0.00000   0.00015   0.00015  -0.00087
   D72       -1.99149   0.00114   0.00000   0.00915   0.00915  -1.98234
   D73       -1.95372   0.00033   0.00000   0.00496   0.00496  -1.94877
   D74        0.04032   0.00006   0.00000   0.00203   0.00202   0.04233
   D75        0.04021   0.00005   0.00000   0.00158   0.00157   0.04178
   D76        2.03425  -0.00022   0.00000  -0.00136  -0.00137   2.03288
   D77        0.06814   0.00016   0.00000   0.00354   0.00355   0.07169
   D78       -2.02305  -0.00029   0.00000  -0.00383  -0.00384  -2.02689
   D79        2.07706   0.00021   0.00000   0.00310   0.00313   2.08019
   D80       -0.01413  -0.00023   0.00000  -0.00426  -0.00426  -0.01839
   D81       -0.06635  -0.00014   0.00000  -0.00325  -0.00326  -0.06961
   D82       -2.07661  -0.00026   0.00000  -0.00328  -0.00331  -2.07993
   D83        2.02451   0.00030   0.00000   0.00398   0.00400   2.02851
   D84        0.01424   0.00019   0.00000   0.00395   0.00394   0.01819
   D85        0.02194   0.00036   0.00000   0.00704   0.00704   0.02898
   D86        2.08798   0.00104   0.00000   0.00670   0.00670   2.09467
   D87       -2.08865  -0.00103   0.00000  -0.00651  -0.00651  -2.09515
   D88       -0.02261  -0.00035   0.00000  -0.00685  -0.00685  -0.02946
   D89        0.00112  -0.00001   0.00000  -0.00018  -0.00018   0.00094
   D90       -1.99327   0.00111   0.00000   0.00892   0.00891  -1.98436
   D91        1.99359  -0.00108   0.00000  -0.00875  -0.00875   1.98484
   D92       -0.00081   0.00004   0.00000   0.00035   0.00035  -0.00046
   D93        0.06597   0.00017   0.00000   0.00365   0.00367   0.06964
   D94       -2.02563  -0.00026   0.00000  -0.00361  -0.00362  -2.02926
   D95        2.07869   0.00019   0.00000   0.00275   0.00278   2.08147
   D96       -0.01292  -0.00025   0.00000  -0.00452  -0.00451  -0.01743
   D97       -0.02283  -0.00038   0.00000  -0.00718  -0.00717  -0.03001
   D98       -2.08906  -0.00101   0.00000  -0.00662  -0.00662  -2.09568
   D99        2.08830   0.00100   0.00000   0.00653   0.00653   2.09483
   D100       0.02208   0.00037   0.00000   0.00708   0.00708   0.02915
   D101      -0.00112   0.00001   0.00000   0.00018   0.00018  -0.00094
   D102      -1.99359   0.00108   0.00000   0.00875   0.00875  -1.98484
   D103       1.99327  -0.00111   0.00000  -0.00892  -0.00891   1.98436
   D104       0.00081  -0.00004   0.00000  -0.00035  -0.00035   0.00046
   D105      -0.06597  -0.00017   0.00000  -0.00365  -0.00367  -0.06964
   D106       2.02563   0.00026   0.00000   0.00361   0.00362   2.02926
   D107      -2.07869  -0.00019   0.00000  -0.00275  -0.00278  -2.08147
   D108       0.01292   0.00025   0.00000   0.00452   0.00451   0.01743
   D109       0.06635   0.00014   0.00000   0.00325   0.00326   0.06961
   D110      -2.02451  -0.00030   0.00000  -0.00398  -0.00400  -2.02851
   D111       2.07661   0.00026   0.00000   0.00328   0.00331   2.07993
   D112      -0.01424  -0.00019   0.00000  -0.00395  -0.00394  -0.01819
   D113      -0.02194  -0.00036   0.00000  -0.00704  -0.00704  -0.02898
   D114      -2.08798  -0.00104   0.00000  -0.00670  -0.00670  -2.09467
   D115       2.08865   0.00103   0.00000   0.00651   0.00651   2.09515
   D116       0.02261   0.00035   0.00000   0.00685   0.00685   0.02946
   D117       0.02283   0.00038   0.00000   0.00718   0.00717   0.03001
   D118      -2.08830  -0.00100   0.00000  -0.00653  -0.00653  -2.09483
   D119       2.08906   0.00101   0.00000   0.00662   0.00662   2.09568
   D120      -0.02208  -0.00037   0.00000  -0.00708  -0.00708  -0.02915
         Item               Value     Threshold  Converged?
 Maximum Force            0.010941     0.000450     NO 
 RMS     Force            0.003207     0.000300     NO 
 Maximum Displacement     0.044870     0.001800     NO 
 RMS     Displacement     0.010468     0.001200     NO 
 Predicted change in Energy=-3.068404D-03
 GradGradGradGradGradGradGradGradGradGradGradGradGradGradGradGradGradGrad

                          Input orientation:                          
 ---------------------------------------------------------------------
 Center     Atomic      Atomic             Coordinates (Angstroms)
 Number     Number       Type             X           Y           Z
 ---------------------------------------------------------------------
      1          6           0        1.156452    1.714505    0.196795
      2          6           0        1.011556    0.991899    1.523706
      3          6           0        1.446213   -0.374023    1.299934
      4          6           0        0.378898   -1.319504    1.561726
      5          6           0        0.124789   -2.059443    0.260442
      6          6           0       -1.156452   -1.714505   -0.196795
      7          6           0       -1.011556   -0.991899   -1.523707
      8          6           0       -1.446213    0.374023   -1.299934
      9          6           0       -0.378898    1.319504   -1.561726
     10          6           0       -0.124789    2.059443   -0.260442
     11          6           0        1.672707    0.746249   -0.750706
     12          6           0        0.755784    0.548135   -1.856768
     13          6           0        0.354978   -0.914897   -1.831804
     14          6           0        1.053103   -1.517862   -0.712293
     15          6           0        1.869994   -0.513335   -0.073175
     16          6           0       -0.354978    0.914897    1.831804
     17          6           0       -0.755784   -0.548135    1.856768
     18          6           0       -1.672707   -0.746249    0.750706
     19          6           0       -1.869994    0.513335    0.073175
     20          6           0       -1.053103    1.517862    0.712293
 ---------------------------------------------------------------------
                    Distance matrix (angstroms):
                    1          2          3          4          5
     1  C    0.000000
     2  C    1.517844   0.000000
     3  C    2.379670   1.450773   0.000000
     4  C    3.416553   2.396723   1.449699   0.000000
     5  C    3.912935   3.419485   2.380618   1.518361   0.000000
     6  C    4.154822   3.871046   3.288001   2.367640   1.403433
     7  C    3.871046   4.161148   3.794119   3.400085   2.369413
     8  C    3.288001   3.794119   3.960431   3.793173   3.290073
     9  C    2.367640   3.400085   3.793173   4.158673   3.871857
    10  C    1.403433   2.369413   3.290073   3.871857   4.159187
    11  C    1.449758   2.381264   2.347645   3.359854   3.360116
    12  C    2.395427   3.419057   3.360332   3.913593   3.417630
    13  C    3.416332   3.914896   3.360226   3.417649   2.395927
    14  C    3.359362   3.361594   2.347756   2.380138   1.449583
    15  C    2.354846   2.356412   1.443754   2.355032   2.355311
    16  C    2.365808   1.402949   2.277825   2.367290   3.397948
    17  C    3.395835   2.367725   2.277974   1.403411   2.368062
    18  C    3.790286   3.289978   3.188709   2.279355   2.279437
    19  C    3.258445   3.261349   3.645487   3.260767   3.260892
    20  C    2.277397   2.279878   3.189221   3.289803   3.793245
                    6          7          8          9         10
     6  C    0.000000
     7  C    1.517844   0.000000
     8  C    2.379670   1.450773   0.000000
     9  C    3.416553   2.396723   1.449699   0.000000
    10  C    3.912935   3.419485   2.380618   1.518361   0.000000
    11  C    3.790286   3.289978   3.188709   2.279355   2.279437
    12  C    3.395835   2.367725   2.277974   1.403411   2.368062
    13  C    2.365808   1.402950   2.277825   2.367290   3.397948
    14  C    2.277397   2.279878   3.189221   3.289803   3.793245
    15  C    3.258445   3.261349   3.645487   3.260767   3.260892
    16  C    3.416332   3.914896   3.360226   3.417649   2.395927
    17  C    2.395427   3.419057   3.360332   3.913593   3.417630
    18  C    1.449758   2.381264   2.347645   3.359854   3.360116
    19  C    2.354846   2.356412   1.443755   2.355032   2.355311
    20  C    3.359362   3.361594   2.347756   2.380138   1.449583
                   11         12         13         14         15
    11  C    0.000000
    12  C    1.450300   0.000000
    13  C    2.380039   1.517146   0.000000
    14  C    2.347676   2.380454   1.450604   0.000000
    15  C    1.443788   2.355714   2.355696   1.443903   0.000000
    16  C    3.287752   3.869608   4.156225   3.791231   3.258726
    17  C    3.791031   4.156560   3.869608   3.288238   3.258926
    18  C    3.958988   3.791032   3.287752   3.188384   3.644690
    19  C    3.644690   3.258926   3.258726   3.645164   3.881106
    20  C    3.188384   3.288238   3.791231   3.959945   3.645163
                   16         17         18         19         20
    16  C    0.000000
    17  C    1.517146   0.000000
    18  C    2.380039   1.450300   0.000000
    19  C    2.355696   2.355714   1.443788   0.000000
    20  C    1.450604   2.380454   2.347676   1.443903   0.000000
 Symmetry turned off by external request.
 Stoichiometry    C20
 Framework group  C1[X(C20)]
 Deg. of freedom    54
 Full point group                 C1      NOp   1
 Rotational constants (GHZ):           0.7794673           0.7792388           0.7292825
 Standard basis: 6-31G(d,p) (6D, 7F)
   300 basis functions,   560 primitive gaussians,   300 cartesian basis functions
    60 alpha electrons       60 beta electrons
       nuclear repulsion energy      1421.1780439447 Hartrees.
 NAtoms=   20 NActive=   20 NUniq=   20 SFac= 1.00D+00 NAtFMM=   60 NAOKFM=F Big=F
 Integral buffers will be    131072 words long.
 Raffenetti 2 integral format.
 Two-electron integral symmetry is turned off.
 Nuclear repulsion after empirical dispersion term =     1421.1534983546 Hartrees.
 One-electron integrals computed using PRISM.
 NBasis=   300 RedAO= T EigKep=  7.08D-04  NBF=   300
 NBsUse=   300 1.00D-06 EigRej= -1.00D+00 NBFU=   300
 Initial guess from the checkpoint file:  "C20_Ih_1.chk"
 B after Tr=     0.000000   -0.000000   -0.000000
         Rot=    1.000000    0.000000    0.000000   -0.000000 Ang=   0.00 deg.
 ExpMin= 1.69D-01 ExpMax= 3.05D+03 ExpMxC= 4.57D+02 IAcc=2 IRadAn=         4 AccDes= 0.00D+00
 Harris functional with IExCor=  402 and IRadAn=       4 diagonalized for initial guess.
 HarFok:  IExCor=  402 AccDes= 0.00D+00 IRadAn=         4 IDoV= 1 UseB2=F ITyADJ=14
 ICtDFT=  3500011 ScaDFX=  1.000000  1.000000  1.000000  1.000000
 FoFCou: FMM=F IPFlag=           0 FMFlag=      100000 FMFlg1=           0
         NFxFlg=           0 DoJE=T BraDBF=F KetDBF=T FulRan=T
         wScrn=  0.000000 ICntrl=       500 IOpCl=  0 I1Cent=   200000004 NGrid=           0
         NMat0=    1 NMatS0=      1 NMatT0=    0 NMatD0=    1 NMtDS0=    0 NMtDT0=    0
 Symmetry not used in FoFCou.
 Keep R1 ints in memory in canonical form, NReq=1032920064.
 Requested convergence on RMS density matrix=1.00D-08 within 128 cycles.
 Requested convergence on MAX density matrix=1.00D-06.
 Requested convergence on             energy=1.00D-06.
 No special actions if energy rises.
 Integral accuracy reduced to 1.0D-05 until final iterations.
 Initial convergence to 1.0D-05 achieved.  Increase integral accuracy.
 SCF Done:  E(RB3LYP) =  -761.468778317     A.U. after   13 cycles
            NFock= 13  Conv=0.54D-08     -V/T= 2.0090
 Calling FoFJK, ICntrl=      2127 FMM=F ISym2X=0 I1Cent= 0 IOpClX= 0 NMat=1 NMatS=1 NMatT=0.
 -------------------------------------------------------------------
 Center     Atomic                   Forces (Hartrees/Bohr)
 Number     Number              X              Y              Z
 -------------------------------------------------------------------
      1        6           0.001892771   -0.000109577    0.000645340
      2        6           0.002024573    0.000187699   -0.000216454
      3        6           0.000845960   -0.000109619    0.000177402
      4        6           0.001435021   -0.001281455   -0.000027258
      5        6           0.001666736   -0.000795438    0.000667931
      6        6          -0.001892760    0.000109603   -0.000645329
      7        6          -0.002024561   -0.000187672    0.000216482
      8        6          -0.000845950    0.000109588   -0.000177387
      9        6          -0.001435033    0.001281460    0.000027246
     10        6          -0.001666754    0.000795449   -0.000667936
     11        6           0.000895780   -0.000055477   -0.000114059
     12        6           0.001489551   -0.000836429   -0.000694375
     13        6           0.001923599   -0.000142744   -0.000801121
     14        6           0.000766955   -0.000324895   -0.000132662
     15        6           0.001420327   -0.000427296   -0.000093853
     16        6          -0.001923623    0.000142742    0.000801111
     17        6          -0.001489560    0.000836422    0.000694376
     18        6          -0.000895761    0.000055486    0.000114026
     19        6          -0.001420307    0.000427271    0.000093852
     20        6          -0.000766966    0.000324883    0.000132666
 -------------------------------------------------------------------
 Cartesian Forces:  Max     0.002024573 RMS     0.000966294

 GradGradGradGradGradGradGradGradGradGradGradGradGradGradGradGradGradGrad
 Berny optimization.
 Using GEDIIS/GDIIS optimizer.
 FormGI is forming the generalized inverse of G from B-inverse, IUseBI=4.
 Internal  Forces:  Max     0.002563076 RMS     0.000483450
 Search for a local minimum.
 Step number   2 out of a maximum of  120
 All quantities printed in internal units (Hartrees-Bohrs-Radians)
 Mixed Optimization -- En-DIIS/RFO-DIIS
 Update second derivatives using D2CorX and points    1    2
 DE= -2.67D-03 DEPred=-3.07D-03 R= 8.71D-01
 TightC=F SS=  1.41D+00  RLast= 1.39D-01 DXNew= 5.0454D-01 4.1778D-01
 Trust test= 8.71D-01 RLast= 1.39D-01 DXMaxT set to 4.18D-01
 ITU=  1  0
 Use linear search instead of GDIIS.
     Eigenvalues ---    0.04919   0.04957   0.05253   0.05258   0.05349
     Eigenvalues ---    0.05351   0.05653   0.06495   0.06504   0.06620
     Eigenvalues ---    0.06962   0.06964   0.07130   0.07337   0.07651
     Eigenvalues ---    0.07655   0.07979   0.08099   0.08104   0.09485
     Eigenvalues ---    0.09509   0.09512   0.11696   0.11717   0.16130
     Eigenvalues ---    0.16132   0.16419   0.17137   0.17140   0.20380
     Eigenvalues ---    0.20422   0.20430   0.22278   0.27817   0.27865
     Eigenvalues ---    0.28850   0.30642   0.30673   0.31075   0.32672
     Eigenvalues ---    0.33136   0.33184   0.33520   0.34312   0.35251
     Eigenvalues ---    0.35283   0.35935   0.36031   0.36055   0.38238
     Eigenvalues ---    0.38281   0.39746   0.39809   0.47957
 RFO step:  Lambda=-3.66711332D-05 EMin= 4.91926482D-02
 Quartic linear search produced a step of -0.10597.
 Iteration  1 RMS(Cart)=  0.00145514 RMS(Int)=  0.00000171
 Iteration  2 RMS(Cart)=  0.00000098 RMS(Int)=  0.00000138
 Variable       Old X    -DE/DX   Delta X   Delta X   Delta X     New X
                                 (Linear)    (Quad)   (Total)
    R1        2.86831   0.00015   0.00225  -0.00244  -0.00018   2.86812
    R2        2.65210   0.00251   0.00255   0.00245   0.00500   2.65710
    R3        2.73965   0.00070   0.00229  -0.00089   0.00140   2.74105
    R4        2.74156   0.00066   0.00234  -0.00112   0.00122   2.74278
    R5        2.65119   0.00256   0.00255   0.00259   0.00513   2.65632
    R6        2.73953   0.00079   0.00228  -0.00070   0.00158   2.74111
    R7        2.72830   0.00052   0.00224  -0.00064   0.00161   2.72991
    R8        2.86929   0.00017   0.00223  -0.00239  -0.00016   2.86912
    R9        2.65206   0.00244   0.00263   0.00221   0.00484   2.65691
   R10        2.65210   0.00251   0.00255   0.00245   0.00500   2.65710
   R11        2.73931   0.00076   0.00229  -0.00081   0.00147   2.74079
   R12        2.86831   0.00015   0.00225  -0.00244  -0.00018   2.86812
   R13        2.73965   0.00070   0.00229  -0.00089   0.00140   2.74105
   R14        2.74156   0.00066   0.00234  -0.00112   0.00122   2.74278
   R15        2.65119   0.00256   0.00255   0.00259   0.00513   2.65632
   R16        2.73953   0.00079   0.00228  -0.00070   0.00158   2.74111
   R17        2.72830   0.00052   0.00224  -0.00064   0.00161   2.72991
   R18        2.86929   0.00017   0.00223  -0.00239  -0.00016   2.86912
   R19        2.65206   0.00244   0.00263   0.00221   0.00484   2.65691
   R20        2.73931   0.00076   0.00229  -0.00081   0.00147   2.74079
   R21        2.74067   0.00074   0.00228  -0.00077   0.00151   2.74218
   R22        2.72836   0.00050   0.00227  -0.00070   0.00157   2.72994
   R23        2.86699   0.00018   0.00218  -0.00222  -0.00004   2.86695
   R24        2.74124   0.00071   0.00230  -0.00093   0.00138   2.74262
   R25        2.72858   0.00048   0.00228  -0.00082   0.00147   2.73005
   R26        2.86699   0.00018   0.00218  -0.00222  -0.00004   2.86695
   R27        2.74124   0.00071   0.00230  -0.00093   0.00138   2.74262
   R28        2.74067   0.00074   0.00228  -0.00077   0.00151   2.74218
   R29        2.72836   0.00050   0.00227  -0.00070   0.00157   2.72994
   R30        2.72858   0.00048   0.00228  -0.00082   0.00147   2.73005
    A1        1.89091  -0.00017  -0.00038  -0.00032  -0.00069   1.89022
    A2        1.86229   0.00000   0.00003  -0.00014  -0.00011   1.86218
    A3        1.85076   0.00027   0.00097   0.00041   0.00138   1.85213
    A4        1.85958   0.00002   0.00003   0.00001   0.00004   1.85962
    A5        1.88714  -0.00017  -0.00035  -0.00015  -0.00050   1.88664
    A6        1.84837   0.00028   0.00096   0.00057   0.00153   1.84990
    A7        1.94509  -0.00021  -0.00119  -0.00041  -0.00160   1.94349
    A8        1.90232   0.00006  -0.00005   0.00074   0.00069   1.90302
    A9        1.90172   0.00007  -0.00002   0.00080   0.00078   1.90251
   A10        1.86114  -0.00001   0.00004  -0.00021  -0.00017   1.86097
   A11        1.84913   0.00028   0.00099   0.00038   0.00137   1.85050
   A12        1.88885  -0.00017  -0.00037  -0.00034  -0.00070   1.88815
   A13        1.88834  -0.00017  -0.00036  -0.00016  -0.00052   1.88781
   A14        1.86070   0.00001   0.00002  -0.00002  -0.00000   1.86070
   A15        1.84854   0.00028   0.00097   0.00048   0.00145   1.85000
   A16        1.89091  -0.00017  -0.00038  -0.00032  -0.00069   1.89022
   A17        1.85076   0.00027   0.00097   0.00041   0.00138   1.85213
   A18        1.86229   0.00000   0.00003  -0.00014  -0.00011   1.86218
   A19        1.85958   0.00002   0.00003   0.00001   0.00004   1.85962
   A20        1.88714  -0.00017  -0.00035  -0.00015  -0.00050   1.88664
   A21        1.84837   0.00028   0.00096   0.00057   0.00153   1.84990
   A22        1.94509  -0.00021  -0.00119  -0.00041  -0.00160   1.94349
   A23        1.90232   0.00006  -0.00005   0.00074   0.00069   1.90302
   A24        1.90172   0.00007  -0.00002   0.00080   0.00078   1.90251
   A25        1.86114  -0.00001   0.00004  -0.00021  -0.00017   1.86097
   A26        1.84913   0.00028   0.00099   0.00038   0.00137   1.85050
   A27        1.88885  -0.00017  -0.00037  -0.00034  -0.00070   1.88815
   A28        1.88834  -0.00017  -0.00036  -0.00016  -0.00052   1.88781
   A29        1.84854   0.00028   0.00097   0.00048   0.00145   1.85000
   A30        1.86070   0.00001   0.00002  -0.00002  -0.00000   1.86070
   A31        1.94392  -0.00022  -0.00115  -0.00052  -0.00167   1.94225
   A32        1.90141   0.00006  -0.00004   0.00075   0.00072   1.90213
   A33        1.90192   0.00007  -0.00002   0.00071   0.00069   1.90261
   A34        1.85017   0.00029   0.00094   0.00060   0.00153   1.85171
   A35        1.88912  -0.00016  -0.00040  -0.00009  -0.00050   1.88863
   A36        1.86106  -0.00001   0.00003  -0.00008  -0.00005   1.86101
   A37        1.89006  -0.00019  -0.00033  -0.00046  -0.00079   1.88927
   A38        1.85092   0.00027   0.00095   0.00034   0.00129   1.85221
   A39        1.86126   0.00001   0.00005  -0.00019  -0.00014   1.86112
   A40        1.94440  -0.00021  -0.00116  -0.00038  -0.00154   1.94286
   A41        1.90202   0.00007  -0.00002   0.00078   0.00076   1.90278
   A42        1.90149   0.00007  -0.00004   0.00087   0.00083   1.90233
   A43        1.89866  -0.00015   0.00004  -0.00142  -0.00138   1.89728
   A44        1.89868  -0.00014   0.00001  -0.00142  -0.00141   1.89727
   A45        1.89855  -0.00014   0.00000  -0.00138  -0.00137   1.89718
   A46        1.89006  -0.00019  -0.00033  -0.00046  -0.00079   1.88927
   A47        1.85092   0.00027   0.00095   0.00034   0.00129   1.85221
   A48        1.86126   0.00001   0.00005  -0.00019  -0.00014   1.86112
   A49        1.88912  -0.00016  -0.00040  -0.00009  -0.00050   1.88863
   A50        1.85017   0.00029   0.00094   0.00060   0.00153   1.85171
   A51        1.86106  -0.00001   0.00003  -0.00008  -0.00005   1.86101
   A52        1.94392  -0.00022  -0.00115  -0.00052  -0.00167   1.94225
   A53        1.90141   0.00006  -0.00004   0.00075   0.00072   1.90213
   A54        1.90192   0.00007  -0.00002   0.00071   0.00069   1.90261
   A55        1.89866  -0.00015   0.00004  -0.00142  -0.00138   1.89728
   A56        1.89868  -0.00014   0.00001  -0.00142  -0.00141   1.89727
   A57        1.89855  -0.00014   0.00000  -0.00138  -0.00137   1.89718
   A58        1.94440  -0.00021  -0.00116  -0.00038  -0.00154   1.94286
   A59        1.90202   0.00007  -0.00002   0.00078   0.00076   1.90278
   A60        1.90149   0.00007  -0.00004   0.00087   0.00083   1.90233
[...]
 400746,-0.07295123,0.27405272,0.00722901,0.00815828,0.00677052,0.00696
 648,-0.00290906,-0.00425704,-0.02017730,0.00325783,0.01660397,0.008347
 02,-0.00023030,-0.00389362,-0.00707922,-0.00345174,0.01089186,0.004973
 54,-0.01020363,-0.00066709,-0.05762609,0.04335239,0.04388844,0.3322675
 0,0.02112400,0.00088755,-0.00965280,-0.00199850,0.00293643,-0.00017991
 ,0.00325783,-0.00936293,-0.00483610,-0.00167541,0.00169127,0.00229606,
 -0.01657072,0.01544160,0.00457184,0.00233129,-0.03610478,0.02143741,0.
 01132348,-0.20068857,0.00231711,0.03621392,0.45968654,0.00118911,0.001
 99557,0.00005824,-0.01111517,0.01457074,-0.00380833,0.01660398,-0.0048
 3610,-0.02600101,-0.01710629,-0.00712054,-0.00325571,0.00060426,-0.002
 57660,-0.00004040,-0.01374771,0.01897982,-0.00037414,0.03305299,-0.020
 98121,-0.06186531,-0.12253861,0.03282389,0.41846970,-0.02425314,0.0019
 4800,-0.02446384,-0.01868137,0.01104714,0.00619248,0.00834703,-0.00167
 541,-0.01710629,-0.00285463,-0.00435529,0.00504339,0.00432398,-0.01133
 261,-0.00452583,0.00717871,0.00834203,-0.00383543,0.01598120,-0.036224
 97,-0.02008831,-0.11889818,-0.05913285,0.04125320,0.48211039,-0.013409
 81,-0.01171129,-0.00576028,0.00612160,0.00992430,0.00285325,-0.0002303
 0,0.00169127,-0.00712054,-0.00435529,-0.00622425,-0.01887009,0.0001038
 4,-0.01771113,0.02039935,0.01351461,0.00103513,0.00157108,0.00146322,-
 0.04092005,0.00224571,-0.09146726,-0.14097515,0.00468775,0.00468061,0.
 41134451,-0.02101412,-0.01346437,-0.02559476,0.00376029,-0.00602377,0.
 00585480,-0.00389362,0.00229607,-0.00325570,0.00504338,-0.01887008,0.0
 1915792,0.01485496,0.01892705,0.00273979,-0.01684733,0.00880392,-0.000
 28012,-0.01848339,0.01077853,0.01911594,0.04012683,-0.02163720,-0.0623
 2756,-0.06291767,0.11585144,0.26727986,-0.24789908,0.04189148,-0.07432
 100,-0.01624976,0.01607018,-0.01182240,-0.00707922,-0.01657072,0.00060
 426,0.00432398,0.00010385,0.01485496,-0.00418646,-0.00016649,-0.002017
 88,0.02448372,0.00752187,-0.00536774,-0.00416686,-0.01169440,-0.018593
 08,-0.00264916,-0.02275895,-0.02051551,-0.08644530,-0.02515392,-0.0078
 8179,0.50556282,0.09166280,-0.01828674,0.00024210,-0.00040158,-0.01866
 766,0.02291979,-0.00345173,0.01544161,-0.00257660,-0.01133262,-0.01771
 113,0.01892705,-0.00016648,0.03020114,0.00326919,-0.02577637,-0.007091
 83,0.00776005,-0.00519329,0.01215164,0.00005752,-0.00989699,-0.0297046
 2,-0.00830173,-0.01570522,-0.04101602,-0.05415582,0.00194526,0.1929801
 2,-0.06661899,0.03419527,-0.11995313,-0.01792087,0.01709329,-0.0263972
 5,0.01089186,0.00457184,-0.00004040,-0.00452582,0.02039934,0.00273979,
 -0.00201787,0.00326919,-0.01583643,-0.00747577,-0.00385342,0.00295172,
 -0.00360783,0.00003284,-0.00017073,-0.01105273,-0.01672845,0.00073495,
 0.00377299,-0.06952871,-0.12116788,0.01721090,-0.02101096,0.46138670,-
 0.05172460,0.06394613,0.02238638,0.00194866,-0.00439844,-0.00103528,0.
 00473763,0.00913220,-0.00893318,-0.01121314,-0.00447309,-0.00064588,-0
 .00820054,-0.00789772,0.00335926,0.00457734,-0.00528727,0.00298883,0.0
 0603682,0.01047662,0.00382932,-0.00274619,0.00346885,-0.01156667,-0.05
 118161,0.00296772,0.00582095,-0.03228871,0.00817506,0.01234757,0.28766
 923,0.04132194,-0.12074861,-0.07437750,-0.00802344,0.00878076,-0.00998
 694,-0.00727757,0.00116917,0.02612192,0.01056618,0.00340510,-0.0148482
 0,0.01861552,-0.00963737,-0.01001527,-0.01303206,0.00667950,0.01161197
 ,0.01042435,-0.00515639,0.00583878,-0.00636549,0.01164814,-0.00128092,
 0.01303187,0.00575995,0.02147827,0.05692737,-0.00760792,-0.01010443,-0
 .07319861,0.47507790,0.00426236,-0.04512014,-0.15020223,0.01641525,-0.
 00890313,-0.04218946,0.02442580,0.04199009,-0.04177985,-0.01709929,0.0
 0276068,-0.01815254,-0.00334055,-0.01957443,-0.00834633,0.00521453,-0.
 00268387,-0.00393241,0.01673024,-0.00667241,0.00759610,0.01186458,0.02
 635048,-0.00463192,-0.05117580,0.00900056,0.01816860,0.03603221,0.0137
 2248,0.01366205,0.07676439,0.01154015,0.44864489,0.01250386,-0.0312884
 9,-0.01360164,0.00159808,0.00181034,0.00982165,-0.01456299,-0.01180789
 ,0.01529865,0.02818747,-0.01114134,0.01791526,0.00898970,0.01978779,-0
 .00382863,-0.01730508,0.01194019,0.00038884,-0.03046841,-0.02023066,0.
 01140609,-0.05823355,-0.02707261,0.03008114,-0.21223210,0.11113759,0.0
 0469062,-0.01086963,0.00643232,0.01697719,-0.09000467,0.00756639,-0.07
 351694,0.45077632,-0.01185010,0.01115280,-0.02130598,-0.00774661,0.005
 61016,0.00465968,-0.00275516,-0.01658462,-0.00365460,0.00568433,-0.000
 98680,0.00534067,0.00423382,-0.00913414,-0.00290152,0.00924866,0.00460
 253,-0.00290377,-0.02483758,-0.02699962,-0.00731191,0.01359847,0.03102
 801,0.00522155,0.08486651,-0.14098514,-0.07550902,0.01865181,-0.018515
 57,-0.01638731,-0.00579370,-0.09205369,-0.04698839,-0.07281747,0.42685
 183,0.01562684,-0.03537980,-0.02986239,0.02127923,-0.00260565,0.000857
 21,-0.00491611,0.01510025,0.00479135,-0.01298995,0.00359968,-0.0071278
 5,-0.00510929,0.00032260,0.00787791,-0.00097674,0.00741496,0.01074051,
 -0.00310855,0.00284254,-0.00484063,-0.01046020,-0.01060771,0.00079480,
 0.05546041,-0.05650389,-0.03259106,0.00478599,-0.01877451,-0.03260427,
 -0.09667296,-0.01635158,-0.13900320,0.08092294,0.09727988,0.28357657,-
 0.00585511,-0.02144812,-0.00056317,0.02305491,-0.00235427,0.01213742,-
 0.00851358,0.00736247,0.01461557,0.00555119,-0.00155119,0.00627255,0.0
 3129335,0.02027790,-0.00229587,-0.02378706,-0.00258762,0.02303248,-0.2
 7925248,-0.02718961,0.04605260,-0.02919207,0.06336213,0.02151757,-0.00
 972863,0.01069914,0.01328102,-0.02119645,0.00276650,0.00194540,-0.0046
 0210,-0.02844810,-0.00947202,-0.08152888,-0.02985684,-0.02915759,0.508
 77346,-0.00587709,0.00647917,0.00441394,-0.02038361,0.00357940,-0.0139
 4990,-0.00201869,-0.02269492,-0.00366362,0.00834762,0.00138713,-0.0090
 1349,0.00126611,-0.00559025,0.02442312,-0.01551214,-0.00522092,0.00517
 237,0.00019134,-0.07048800,0.06376550,0.02177218,0.00148720,-0.0201983
 0,0.01470390,-0.04720747,0.00153372,0.00582786,0.00781061,0.00192763,-
 0.01216771,-0.01550989,-0.02474197,-0.01264299,-0.15151642,0.00360833,
 0.02425219,0.36138392,-0.00422383,0.00266423,0.00755043,-0.01277993,0.
 00303258,-0.00689407,-0.01147397,-0.00980688,0.00516843,0.01935508,-0.
 00848969,0.00133940,0.03079060,0.02173489,-0.03171410,0.01389681,0.012
 74509,-0.03357072,0.07893919,0.02211595,-0.03585724,-0.00425427,0.0138
 6211,0.00050608,-0.00457471,0.00029276,-0.00488695,-0.00452775,-0.0058
 5521,0.01092516,-0.00304406,-0.01942892,-0.01140103,-0.02590142,0.0161
 3157,-0.01580690,0.01726095,-0.12749257,0.29078943,-0.01316999,0.01039
 393,0.00776768,-0.01003100,0.01263566,0.00648970,0.00274474,-0.0112504
 9,-0.02125940,0.00934878,0.00415346,0.00381726,-0.11462835,-0.06510451
 ,0.05898510,-0.05466348,0.01984712,0.01556524,-0.04385824,0.02598537,-
 0.00603831,0.00200450,0.00157356,-0.00944044,-0.00588371,-0.00987589,0
 .00088711,0.01296603,0.00135803,-0.00354333,-0.00067999,-0.03222478,-0
 .00269416,0.01048578,-0.00278688,0.00724698,-0.09181017,0.00342257,-0.
 07535484,0.40200802,-0.01621931,-0.00414856,0.00717051,-0.00290403,0.0
 0313415,0.01263801,0.00598702,0.00059247,-0.01947866,0.00891227,0.0014
 9588,0.00779862,-0.04296098,-0.05385408,0.05012557,-0.02847966,0.01397
 765,0.00240138,0.01471445,-0.00217258,-0.02078877,0.01184353,0.0062765
 5,0.00657513,-0.00960670,0.00646081,-0.00699468,0.00876924,-0.00219112
 ,-0.01130101,-0.00090260,-0.05668099,-0.01155246,0.01325056,-0.0290056
 3,0.01875676,-0.00943414,-0.08629531,0.06154901,0.11945929,0.35876324,
 0.00760867,0.01851897,-0.00963194,-0.01612612,0.00520922,-0.01840749,-
 0.00084084,-0.04950804,-0.03906935,0.01779256,-0.00220117,-0.04268565,
 0.02734526,0.03464075,-0.15354917,0.02557510,-0.03064729,0.01482757,-0
 .04847952,0.01907288,0.01834158,-0.00336412,-0.02931214,-0.00384655,0.
 01846348,-0.00238792,0.00732332,0.00587831,-0.00063203,-0.00385301,0.0
 0391067,0.01411307,0.02132096,0.00356628,0.02693092,-0.01286673,-0.039
 66965,0.07622880,-0.14217648,0.05683940,-0.04741360,0.45033521,-0.0031
 0828,0.00211113,-0.00053789,-0.00522006,0.00525334,0.00242960,-0.04855
 697,-0.00837438,0.05582954,-0.02071991,0.00077912,0.01719621,-0.030385
 21,-0.01327760,0.00214840,0.00543596,-0.00775651,-0.00445030,0.0041629
 7,-0.00842948,-0.00318753,-0.00103510,0.00149205,0.00617697,0.00106294
 ,0.00603721,-0.00198264,-0.00137482,0.00579845,-0.00475101,-0.03310639
 ,0.01860466,-0.02003827,-0.01072486,0.01167563,-0.00562358,-0.02168015
 ,-0.00014453,-0.01462360,-0.09262725,-0.08242819,-0.04636038,0.2580425
 8,0.03258577,-0.04963461,-0.00341993,0.02735568,-0.01232051,-0.0300605
 3,-0.00830077,-0.08011879,-0.01760658,-0.02076729,0.00511866,0.0238888
 8,-0.04355877,-0.02231307,0.00466612,0.01761390,-0.00425597,0.00139524
 ,0.01137673,-0.00291793,-0.00228865,0.00069303,0.00338942,-0.00127750,
 -0.01333011,0.00011456,0.00381948,-0.01896013,0.00273645,0.00112688,0.
 01796711,-0.19585845,0.06144711,0.01852917,-0.00081082,0.01909445,-0.0
 0789429,0.00915317,-0.01457831,-0.08145942,-0.14035338,-0.04102450,0.0
 6845141,0.48869927,0.00645737,-0.00869838,0.01435630,0.02431165,-0.030
 60244,-0.02110946,0.05495490,-0.01742575,-0.21336773,0.03732754,0.0131
 4566,-0.02254220,0.01139382,0.00547317,0.01396319,0.00228062,-0.003945
 35,-0.00036118,0.01424283,-0.00200061,-0.00013491,-0.03180830,0.008945
 73,0.02984430,0.01411600,-0.00554564,-0.00036740,0.00460062,0.00181168
 ,-0.00060876,-0.01995467,0.06118428,-0.11259840,-0.03380263,0.03166190
 ,-0.02752996,-0.04473475,-0.01098525,-0.02592507,-0.04567884,-0.040792
 85,-0.10943752,0.01013698,-0.00269906,0.50677362,-0.02378706,-0.002587
 63,0.02303248,-0.27925252,-0.02718961,0.04605262,-0.02919207,0.0633621
 2,0.02151757,-0.00972862,0.01069912,0.01328101,-0.02119645,0.00276650,
 0.00194540,-0.00585510,-0.02144812,-0.00056318,0.02305490,-0.00235427,
 0.01213742,-0.00851357,0.00736247,0.01461556,0.00555119,-0.00155119,0.
 00627254,0.03129334,0.02027791,-0.00229588,-0.00309726,-0.00787158,-0.
 01505190,0.00571562,0.01392186,-0.00232985,-0.00577080,-0.00470396,-0.
 00017203,0.01167889,0.00712838,0.00568267,-0.00005268,-0.00643085,-0.0
 1835139,0.50877350,-0.01551214,-0.00522090,0.00517236,0.00019136,-0.07
 048800,0.06376548,0.02177219,0.00148720,-0.02019830,0.01470389,-0.0472
 0747,0.00153371,0.00582786,0.00781061,0.00192763,-0.00587710,0.0064791
 7,0.00441394,-0.02038361,0.00357941,-0.01394990,-0.00201869,-0.0226949
 2,-0.00366362,0.00834762,0.00138712,-0.00901348,0.00126611,-0.00559025
 ,0.02442312,0.00654499,0.00520290,0.01331944,-0.00882515,0.01408878,-0
 .00109162,-0.00470395,0.00092708,0.02177653,-0.00305427,-0.00951808,-0
 .00838988,-0.00099862,0.00254192,0.00335721,0.02425216,0.36138394,0.01
 389681,0.01274509,-0.03357071,0.07893920,0.02211595,-0.03585726,-0.004
 25427,0.01386210,0.00050608,-0.00457470,0.00029276,-0.00488695,-0.0045
 2775,-0.00585520,0.01092517,-0.00422383,0.00266423,0.00755043,-0.01277
 993,0.00303258,-0.00689407,-0.01147396,-0.00980688,0.00516843,0.019355
 08,-0.00848970,0.00133940,0.03079062,0.02173489,-0.03171409,-0.0102998
 1,0.00346618,0.00620856,-0.00136886,0.00058914,-0.03108091,-0.00017203
 ,0.02177653,0.01380158,0.00463977,0.00474778,0.00437019,0.00771669,0.0
 0094379,-0.00134580,0.01726095,-0.12749255,0.29078948,-0.01730508,0.01
 194018,0.00038884,-0.03046841,-0.02023064,0.01140609,-0.05823356,-0.02
 707259,0.03008114,-0.21223209,0.11113758,0.00469061,-0.01086965,0.0064
 3231,0.01697719,0.01250386,-0.03128851,-0.01360165,0.00159808,0.001810
 34,0.00982166,-0.01456298,-0.01180789,0.01529864,0.02818747,-0.0111413
 5,0.01791526,0.00898969,0.01978779,-0.00382863,0.00460233,-0.01481057,
 0.00967077,-0.00007478,0.00465123,-0.01124942,0.00571562,-0.00882515,-
 0.00136885,-0.00055049,0.01059420,-0.02001440,0.00369631,0.00493742,-0
 .01745550,-0.08152887,-0.01264300,-0.02590142,0.45077631,0.00924866,0.
 00460253,-0.00290377,-0.02483760,-0.02699962,-0.00731189,0.01359846,0.
 03102801,0.00522154,0.08486651,-0.14098515,-0.07550901,0.01865183,-0.0
 1851557,-0.01638731,-0.01185011,0.01115280,-0.02130597,-0.00774660,0.0
 0561015,0.00465968,-0.00275516,-0.01658460,-0.00365460,0.00568432,-0.0
 0098680,0.00534066,0.00423381,-0.00913415,-0.00290152,-0.00515839,-0.0
 0220628,0.00465039,0.00465122,-0.00598357,-0.01808582,0.01392185,0.014
 08878,0.00058913,-0.00357348,0.00268738,-0.00388480,0.00064392,-0.0012
 3921,0.00646745,-0.02985683,-0.15151646,0.01613155,-0.07281743,0.42685
 186,-0.00097674,0.00741496,0.01074052,-0.00310854,0.00284254,-0.004840
 64,-0.01046020,-0.01060770,0.00079481,0.05546041,-0.05650389,-0.032591
 05,0.00478599,-0.01877452,-0.03260428,0.01562685,-0.03537980,-0.029862
 39,0.02127924,-0.00260565,0.00085720,-0.00491610,0.01510025,0.00479136
 ,-0.01298995,0.00359969,-0.00712785,-0.00510929,0.00032260,0.00787791,
 0.00186116,-0.00606838,0.00432146,-0.01124942,-0.01808583,0.01509324,-
 0.00232986,-0.00109161,-0.03108091,-0.01055858,0.00215450,0.00663648,0
 .00596927,-0.00470502,-0.00137564,-0.02915759,0.00360834,-0.01580691,0
 .08092295,0.09727989,0.28357658,0.00457733,-0.00528726,0.00298884,0.00
 603682,0.01047663,0.00382931,-0.00274619,0.00346886,-0.01156667,-0.051
 18161,0.00296772,0.00582096,-0.03228870,0.00817506,0.01234757,-0.05172
 459,0.06394613,0.02238638,0.00194867,-0.00439844,-0.00103527,0.0047376
 3,0.00913220,-0.00893318,-0.01121313,-0.00447309,-0.00064589,-0.008200
 53,-0.00789771,0.00335926,-0.01500462,0.01373414,-0.00655241,0.0046023
 2,-0.00515839,0.00186115,-0.00309726,0.00654500,-0.01029981,-0.0010598
 2,0.00519959,0.01112284,-0.00466238,-0.02233490,0.01431356,-0.00460210
 ,-0.01216772,-0.00304407,-0.09000469,-0.00579372,-0.09667298,0.2876692
 7,-0.01303205,0.00667950,0.01161196,0.01042434,-0.00515639,0.00583878,
 -0.00636549,0.01164813,-0.00128092,0.01303185,0.00575995,0.02147828,0.
 05692737,-0.00760792,-0.01010444,0.04132192,-0.12074858,-0.07437748,-0
 .00802344,0.00878075,-0.00998694,-0.00727758,0.00116917,0.02612193,0.0
 1056617,0.00340510,-0.01484820,0.01861551,-0.00963737,-0.01001527,0.01
 373415,-0.02873528,0.00807968,-0.01481057,-0.00220628,-0.00606837,-0.0
 0787158,0.00520289,0.00346618,-0.01090448,-0.01076540,0.01476276,0.011
 36427,0.02723686,-0.01573490,-0.02844808,-0.01550989,-0.01942892,0.007
 56639,-0.09205369,-0.01635157,-0.07319860,0.47507788,0.00521453,-0.002
 68386,-0.00393241,0.01673023,-0.00667241,0.00759610,0.01186458,0.02635
 049,-0.00463192,-0.05117582,0.00900056,0.01816861,0.03603223,0.0137225
 0,0.01366205,0.00426234,-0.04512011,-0.15020223,0.01641523,-0.00890314
 ,-0.04218945,0.02442579,0.04199006,-0.04177984,-0.01709929,0.00276068,
 -0.01815254,-0.00334054,-0.01957443,-0.00834632,-0.00655242,0.00807968
 ,-0.01298652,0.00967077,0.00465039,0.00432146,-0.01505189,0.01331944,0
 .00620856,0.00241276,-0.01764606,0.01582400,-0.00485154,-0.00897819,0.
 00947727,-0.00947202,-0.02474197,-0.01140103,-0.07351694,-0.04698840,-
 0.13900322,0.07676441,0.01154011,0.44864487,0.00543596,-0.00775650,-0.
 00445030,0.00416297,-0.00842949,-0.00318753,-0.00103510,0.00149205,0.0
 0617698,0.00106294,0.00603721,-0.00198264,-0.00137482,0.00579844,-0.00
 475101,-0.00310828,0.00211113,-0.00053789,-0.00522006,0.00525334,0.002
 42960,-0.04855701,-0.00837437,0.05582956,-0.02071990,0.00077911,0.0171
 9621,-0.03038520,-0.01327760,0.00214841,-0.00466238,0.01136427,-0.0048
 5154,0.00369631,0.00064392,0.00596926,-0.00005267,-0.00099863,0.007716
 69,0.00846968,-0.00009614,0.00038663,-0.00761636,-0.01070572,-0.001583
 56,-0.02168015,-0.00014452,-0.01462360,-0.01072486,0.01167563,-0.00562
 358,-0.03310642,0.01860467,-0.02003828,0.25804267,0.01761390,-0.004255
 97,0.00139524,0.01137673,-0.00291792,-0.00228865,0.00069303,0.00338942
 ,-0.00127751,-0.01333011,0.00011455,0.00381948,-0.01896013,0.00273645,
 0.00112688,0.03258576,-0.04963460,-0.00341993,0.02735567,-0.01232050,-
 0.03006051,-0.00830076,-0.08011879,-0.01760659,-0.02076727,0.00511866,
 0.02388886,-0.04355875,-0.02231307,0.00466614,-0.02233491,0.02723685,-
 0.00897819,0.00493741,-0.00123920,-0.00470503,-0.00643085,0.00254192,0
 .00094378,0.03423203,0.01453508,0.00985533,-0.01070571,-0.04370264,0.0
 0040098,-0.00789430,0.00915317,-0.01457832,0.01852918,-0.00081082,0.01
 909446,0.01796711,-0.19585847,0.06144712,0.06845141,0.48869929,0.00228
 062,-0.00394536,-0.00036117,0.01424283,-0.00200060,-0.00013491,-0.0318
 0830,0.00894572,0.02984430,0.01411599,-0.00554564,-0.00036740,0.004600
 62,0.00181168,-0.00060876,0.00645736,-0.00869836,0.01435630,0.02431164
 ,-0.03060244,-0.02110946,0.05495489,-0.01742575,-0.21336776,0.03732754
 ,0.01314566,-0.02254220,0.01139380,0.00547316,0.01396319,0.01431356,-0
 .01573490,0.00947728,-0.01745549,0.00646745,-0.00137563,-0.01835139,0.
 00335721,-0.00134580,0.01923375,0.00598217,0.00897048,-0.00158356,0.00
 040098,-0.04668114,-0.04473472,-0.01098523,-0.02592507,-0.03380262,0.0
 3166189,-0.02752996,-0.01995466,0.06118429,-0.11259840,0.01013698,-0.0
 0269904,0.50677364,-0.05466347,0.01984712,0.01556522,-0.04385823,0.025
 98536,-0.00603830,0.00200450,0.00157356,-0.00944044,-0.00588370,-0.009
 87589,0.00088711,0.01296603,0.00135803,-0.00354333,-0.01316999,0.01039
 392,0.00776768,-0.01003099,0.01263566,0.00648969,0.00274475,-0.0112504
 9,-0.02125941,0.00934877,0.00415346,0.00381728,-0.11462839,-0.06510453
 ,0.05898515,-0.00105981,-0.01090448,0.00241276,-0.00055048,-0.00357349
 ,-0.01055858,0.01167889,-0.00305426,0.00463976,-0.03074393,-0.01282680
 ,-0.00931684,0.00846968,0.03423203,0.01923375,-0.09181018,0.00342259,-
 0.07535487,0.01048577,-0.00278687,0.00724697,-0.00067999,-0.03222478,-
 0.00269415,-0.09262731,-0.08145941,-0.04567884,0.40200810,-0.02847966,
 0.01397764,0.00240139,0.01471446,-0.00217259,-0.02078876,0.01184353,0.
 00627656,0.00657513,-0.00960669,0.00646081,-0.00699468,0.00876924,-0.0
 0219111,-0.01130101,-0.01621931,-0.00414855,0.00717051,-0.00290402,0.0
 0313415,0.01263801,0.00598703,0.00059247,-0.01947867,0.00891227,0.0014
 9589,0.00779862,-0.04296099,-0.05385412,0.05012557,0.00519959,-0.01076
 539,-0.01764606,0.01059419,0.00268739,0.00215451,0.00712838,-0.0095180
 9,0.00474778,-0.01282680,-0.01293808,-0.00393134,-0.00009614,0.0145350
 7,0.00598217,-0.00943410,-0.08629534,0.06154903,0.01325055,-0.02900562
 ,0.01875676,-0.00090260,-0.05668097,-0.01155245,-0.08242822,-0.1403534
 2,-0.04079288,0.11945929,0.35876330,0.02557512,-0.03064728,0.01482756,
 -0.04847953,0.01907287,0.01834157,-0.00336411,-0.02931214,-0.00384654,
 0.01846347,-0.00238790,0.00732331,0.00587831,-0.00063204,-0.00385301,0
 .00760867,0.01851896,-0.00963193,-0.01612611,0.00520922,-0.01840748,-0
 .00084084,-0.04950801,-0.03906933,0.01779255,-0.00220117,-0.04268564,0
 .02734532,0.03464078,-0.15354921,0.01112283,0.01476276,0.01582400,-0.0
 2001439,-0.00388480,0.00663647,0.00568267,-0.00838987,0.00437019,-0.00
 931685,-0.00393134,-0.01242591,0.00038663,0.00985533,0.00897048,-0.039
 66968,0.07622879,-0.14217652,0.00356628,0.02693092,-0.01286672,0.00391
 068,0.01411304,0.02132096,-0.04636040,-0.04102452,-0.10943753,0.056839
 38,-0.04741361,0.45033528\\-0.00017771,-0.00000945,-0.00020811,-0.0002
 0886,-0.00008535,0.00014759,0.00030686,-0.00016016,-0.00025673,-0.0000
 3750,0.00025480,0.00002929,-0.00014303,0.00002742,-0.00019536,0.000177
 67,0.00000946,0.00020810,0.00020882,0.00008535,-0.00014760,-0.00030685
 ,0.00016020,0.00025676,0.00003749,-0.00025483,-0.00002923,0.00014302,-
 0.00002748,0.00019538,0.00027340,-0.00029428,0.00009843,-0.00002386,0.
 00017474,0.00010687,-0.00021066,-0.00007655,0.00017273,0.00040149,0.00
 008980,0.00009910,-0.00027095,0.00010098,0.00002711,0.00021066,0.00007
 655,-0.00017277,0.00002385,-0.00017470,-0.00010690,-0.00027340,0.00029
 432,-0.00009842,0.00027100,-0.00010096,-0.00002710,-0.00040146,-0.0000
 8984,-0.00009913\\\@


 I WANT IT ALL - RICH, THIN, AND CHOCOLATE.
 Job cpu time:       0 days  3 hours 44 minutes 57.8 seconds.
 Elapsed time:       0 days  0 hours 56 minutes 26.2 seconds.
 File lengths (MBytes):  RWF=    216 Int=      0 D2E=      0 Chk=     10 Scr=      1
 Normal termination of Gaussian 16 at Sat May  5 19:47:49 2018.
