28
 energy: -59.251453192389 gnorm: 0.319474612017 xtb: 6.3.3 (4ae9cef)
C         0.27600000000000    0.16800000000000   -2.52500000000000
C         0.91100000000000    1.32200000000000   -2.07500000000000
C        -0.05700000000000    2.14700000000000   -1.50900000000000
C        -1.05700000000000    0.22800000000000   -2.12800000000000
C        -1.22000000000000    1.39400000000000   -1.37400000000000
C        -1.37700000000000   -1.01000000000000   -1.56300000000000
C         0.84700000000000   -0.92100000000000   -1.87400000000000
C        -0.20500000000000   -1.75800000000000   -1.49200000000000
C         1.80100000000000    0.96700000000000   -1.06500000000000
C         1.72300000000000   -0.41900000000000   -0.90700000000000
C         0.38300000000000    2.50600000000000   -0.23700000000000
C         1.55800000000000    1.80800000000000    0.02500000000000
C        -1.50600000000000    1.30600000000000   -0.00800000000000
C        -0.56400000000000    2.07200000000000    0.68600000000000
C        -1.97300000000000   -1.04800000000000   -0.29900000000000
C        -1.92000000000000    0.07700000000000    0.52900000000000
C        -0.16800000000000   -2.36900000000000   -0.23500000000000
C        -1.38300000000000   -2.10300000000000    0.39000000000000
C         1.70100000000000   -0.96200000000000    0.38700000000000
C         0.85100000000000   -2.03800000000000    0.66300000000000
C         1.43800000000000    1.26000000000000    1.30500000000000
C         0.14300000000000    1.50800000000000    1.75100000000000
C         1.68900000000000   -0.10200000000000    1.48900000000000
C        -1.43400000000000   -0.32200000000000    1.77800000000000
C        -1.11300000000000   -1.67400000000000    1.68700000000000
C         0.25700000000000   -1.79400000000000    1.89900000000000
C        -0.33500000000000    0.33400000000000    2.34000000000000
C         0.72200000000000   -0.57100000000000    2.37500000000000
28
 energy: -59.341783694376 gnorm: 0.155703820656 xtb: 6.3.3 (4ae9cef)
C         0.29232182485237    0.17296304001193   -2.56077028250182
C         0.93211815870381    1.34166627208846   -2.11101452073637
C        -0.06361157040540    2.18551056374396   -1.53300078535411
C        -1.08910747157226    0.23335836568040   -2.15845855426218
C        -1.25721942746178    1.41721424542869   -1.40068371499974
C        -1.40671981071120   -1.00743495575046   -1.58325128145474
C         0.87104285841200   -0.94686863327033   -1.89972645077938
C        -0.19205647475955   -1.78938628005248   -1.50361371280332
C         1.84817628089802    0.98318288708444   -1.07900248154345
C         1.78281419352523   -0.44268284180578   -0.91747536693125
C         0.37698640214713    2.54417501273004   -0.24614469214425
C         1.59681494771054    1.82998389469669    0.02727026707520
C        -1.56498690809687    1.33139971785651    0.00059905493425
C        -0.58657823571293    2.10413943284228    0.70497607929366
C        -2.01521461401403   -1.05394743396135   -0.30844331262752
C        -1.98013432760406    0.09970661174117    0.53875947482357
C        -0.15668861031065   -2.41104787228293   -0.24505867962172
C        -1.41049344528503   -2.12755525180558    0.40405352433789
C         1.76045196484201   -0.98682502907804    0.37960993351071
C         0.87577959463927   -2.08298875408234    0.66594211693734
C         1.47142591698750    1.27286206401371    1.30979410529000
C         0.12610776294487    1.52433059015689    1.77852738308365
C         1.72946411332269   -0.10252544341636    1.50506471214110
C        -1.46863071240081   -0.31649247623378    1.81566128471861
C        -1.13786437847207   -1.69988091834036    1.71593361876796
C         0.26746513871766   -1.82611674230190    1.92994987446503
C        -0.35283334283203    0.34871745177081    2.37815807590791
C         0.73917017193560   -0.58945751746428    2.40534433047296
28
 energy: -59.365587265600 gnorm: 0.046904123452 xtb: 6.3.3 (4ae9cef)
C         0.30688919849908    0.17486983163577   -2.56643465602362
C         0.94540075684821    1.35116731073209   -2.12797079707143
C        -0.06965452930704    2.20415118720156   -1.54521091201353
C        -1.11219579827038    0.23455819745794   -2.16942070501442
C        -1.28020195275492    1.42607320923768   -1.41695703196178
C        -1.42692755229282   -1.00003224364482   -1.59068554631114
C         0.88568493395132   -0.96640258486251   -1.90823905957245
C        -0.17765750899449   -1.80644747090632   -1.50683425224339
C         1.87607647921631    0.99336477702379   -1.08245992983930
C         1.83940563969631   -0.46949280409468   -0.91981558665973
C         0.36485205392015    2.55282392570248   -0.25165403356013
C         1.62154095029978    1.83528734346268    0.03155242868372
C        -1.62368266854469    1.34827965179077    0.01310570499916
C        -0.60292750982067    2.11704834675257    0.72027021888019
C        -2.03913592106615   -1.05056711536782   -0.31779626081617
C        -2.03530236259077    0.12872624183709    0.54384874664929
C        -0.14428179050108   -2.43131038518816   -0.25513805003944
C        -1.42302702467938   -2.12606779082899    0.41325473979035
C         1.81786768403595   -1.00625013624567    0.36470867222266
C         0.88871790523306   -2.10944571120090    0.66300917523614
C         1.49392623641316    1.27523549511467    1.30757132851211
C         0.10915266868737    1.53197724276914    1.79180690645542
C         1.75483870376509   -0.09930374142599    1.50757222868028
C        -1.48640511269485   -0.30921161777796    1.83825659908503
C        -1.15193537414415   -1.71065556224004    1.73145309782025
C         0.27440221878109   -1.84354103801688    1.94350230836080
C        -0.36677094286605    0.36243695029191    2.39488378677717
C         0.74935061918056   -0.60127150920940    2.40682087897396
28
 energy: -59.367887584700 gnorm: 0.017985342442 xtb: 6.3.3 (4ae9cef)
C         0.31226331438206    0.17938124907740   -2.55989614875606
C         0.94972342125321    1.35485334833332   -2.13223659657871
C        -0.07177747586270    2.20895213526155   -1.54974039868465
C        -1.11966161571389    0.23972798127571   -2.16707741873227
C        -1.28896712860134    1.43220937234660   -1.42307169490384
C        -1.43260395781092   -0.99403305709409   -1.58593988376203
C         0.89069810455697   -0.96896741139294   -1.91016493608576
C        -0.16850679462025   -1.80613201375420   -1.50463570621228
C         1.88729284576594    0.99698901296243   -1.08642672456484
C         1.86380647473975   -0.47903518105427   -0.92221934120202
C         0.35922603982843    2.54745346307544   -0.25731609173904
C         1.62925486908211    1.83095913392345    0.02834039586644
C        -1.64821565368320    1.35681358723228    0.01647761277968
C        -0.60780369629125    2.12030170978793    0.72150500889284
C        -2.04504250799720   -1.04945330602315   -0.31746774947038
C        -2.05888669907201    0.13958866546780    0.54787977181190
C        -0.13520721884049   -2.43383495183761   -0.25454884761318
C        -1.42164591419319   -2.11885594634013    0.41954762150430
C         1.84164098125693   -1.01629800460723    0.35981447937003
C         0.89494788881511   -2.12002590789787    0.66429301917468
C         1.49948922100775    1.26905176840057    1.30315770246874
C         0.09996790833122    1.53200962009731    1.78936240771776
C         1.76047159976220   -0.10108265645248    1.50791623079885
C        -1.49503764990103   -0.30843214735236    1.84706266195468
C        -1.15561404571284   -1.71324042062133    1.73698031685835
C         0.27597016329223   -1.84951757351450    1.94678868761036
C        -0.37608144478683    0.36407260636951    2.39513790395266
C         0.74829897101322   -0.60745507566911    2.39947771754378
28
 energy: -59.368240599170 gnorm: 0.009451920189 xtb: 6.3.3 (4ae9cef)
C         0.31364763497235    0.18337221533737   -2.55430919025657
C         0.95087417324216    1.35707075851092   -2.13405724992733
C        -0.07192468292373    2.21081337504527   -1.55214485090719
C        -1.12143853836417    0.24401786853502   -2.16352469818814
C        -1.29219294386910    1.43570876615759   -1.42536933318228
C        -1.43339772528944   -0.99101567170811   -1.58098177382020
C         0.89151579718784   -0.96684089190044   -1.91023314346922
C        -0.16413396492973   -1.80281636047421   -1.50261415798808
C         1.89163198964845    0.99829245402672   -1.08905046053384
C         1.87104026462437   -0.48087564354729   -0.92337009024021
C         0.35751333426463    2.54214873299658   -0.26147774700249
C         1.63109375492415    1.82681185802966    0.02462752717437
C        -1.65517089968538    1.35974623136739    0.01646336226170
C        -0.60805505462930    2.12047646911578    0.71923207673202
C        -2.04478123597813   -1.04961688023981   -0.31522719051461
C        -2.06565166538964    0.14220997924643    0.54996497948050
C        -0.13019421711085   -2.43252547170176   -0.25189766218805
C        -1.41806785981187   -2.11421053734955    0.42343569614138
C         1.84813688063023   -1.02010378368550    0.35890967817451
C         0.89776444629146   -2.12419530964658    0.66586182602276
C         1.49973234337419    1.26387594126413    1.30043252623360
C         0.09609842823492    1.53088462480833    1.78510077504233
C         1.75959692702795   -0.10319645458391    1.50803417755871
C        -1.49895065609934   -0.30904587396055    1.85041666126913
C        -1.15637851420810   -1.71480063597632    1.73956024878085
C         0.27575283108816   -1.85210002145676    1.94845269874564
C        -0.38116146329621    0.36258496948033    2.39263714232390
C         0.74510061607412   -0.61067070769073    2.39412817227679
28
 energy: -59.368352800147 gnorm: 0.005903307323 xtb: 6.3.3 (4ae9cef)
C         0.31376321185914    0.18632768703033   -2.54983580034629
C         0.95118488102848    1.35876194040203   -2.13544419257185
C        -0.07153595590518    2.21211681150737   -1.55385403783578
C        -1.12179308831557    0.24681818040380   -2.16042211976502
C        -1.29406651354367    1.43738424973598   -1.42606509300342
C        -1.43312672034730   -0.98976475348280   -1.57764640397946
C         0.89120321873778   -0.96461898078128   -1.90948416122164
C        -0.16211856862317   -1.80006241336314   -1.50152695189256
C         1.89388015455625    0.99845714907263   -1.09020542172060
C         1.87282275520118   -0.48086999258197   -0.92371850304275
C         0.35702589175893    2.53770221002967   -0.26433841052475
C         1.63134738892304    1.82352910812442    0.02200859558756
C        -1.65677558448980    1.36053310415543    0.01596839345851
C        -0.60740035333683    2.11957112669361    0.71714652838896
C        -2.04321723190754   -1.04959710748517   -0.31349939083395
C        -2.06714784701021    0.14269921692818    0.55088736137629
C        -0.12714093865608   -2.43062985335872   -0.24979000299024
C        -1.41458269458924   -2.11089025432018    0.42584568619478
C         1.84944288367895   -1.02143584372368    0.35881759078873
C         0.89954768125308   -2.12596870809242    0.66644043212332
C         1.49896604152537    1.26059803560936    1.29915756894405
C         0.09457530794819    1.53014722719299    1.78193018380960
C         1.75767988352461   -0.10451987094780    1.50766493302434
C        -1.50109636951326   -0.30906745134982    1.85168402016986
C        -1.15654692108169   -1.71624052654037    1.74124929876852
C         0.27520911061905   -1.85371154804959    1.94987853349991
C        -0.38412032725337    0.36114493957489    2.39004675137695
C         0.74202070395885   -0.61241368238374    2.39010461221694
28
 energy: -59.368386893228 gnorm: 0.004084915694 xtb: 6.3.3 (4ae9cef)
C         0.31343429899086    0.18775960492973   -2.54765255798953
C         0.95123470079419    1.35979517155545   -2.13652130260729
C        -0.07111879560627    2.21310848142181   -1.55486759560663
C        -1.12166234992529    0.24779611449221   -2.15885601960902
C        -1.29508097102919    1.43765090227337   -1.42584945745948
C        -1.43274583111138   -0.98982996512508   -1.57664739216795
C         0.89079622972154   -0.96361967176176   -1.90868589764159
C        -0.16192766116340   -1.79901107887550   -1.50143130284697
C         1.89479594804921    0.99801031078543   -1.09019720890259
C         1.87242498426965   -0.48050994040005   -0.92369985239701
C         0.35714994901818    2.53546503713666   -0.26563501983609
C         1.63108289044794    1.82197676468524    0.02102883592939
C        -1.65634476678504    1.36042874623854    0.01566899692008
C        -0.60695529145766    2.11865747486001    0.71626856415080
C        -2.04208988740585   -1.04930958957601   -0.31287554034163
C        -2.06668616254098    0.14245951600491    0.55100215580070
C        -0.12603117231675   -2.42943628124909   -0.24894254558812
C        -1.41260154289822   -2.10943977320998    0.42682346752059
C         1.84892721324402   -1.02147674141546    0.35895451271762
C         0.90051588999483   -2.12627134707214    0.66616796511850
C         1.49835214403355    1.25969323331667    1.29913236447182
C         0.09462511732323    1.53004579752150    1.78084383733731
C         1.75651960006925   -0.10488835269602    1.50713575517986
C        -1.50195747510471   -0.30855035003446    1.85172340726032
C        -1.15666198718288   -1.71738254019092    1.74222262946124
C         0.27484110018591   -1.85463046029352    1.95100841172773
C        -0.38510089536173    0.36051448109172    2.38862056696826
C         0.74026472374698   -0.61300554441326    2.38826022242966
28
 energy: -59.368401550263 gnorm: 0.002106261800 xtb: 6.3.3 (4ae9cef)
C         0.31311002470408    0.18863149004960   -2.54662329323328
C         0.95132781959910    1.36060173544123   -2.13756800660291
C        -0.07079147362252    2.21409482060315   -1.55567010403758
C        -1.12153622475062    0.24811279500275   -2.15807303628520
C        -1.29589592982859    1.43755893499429   -1.42543820334382
C        -1.43247957728118   -0.99023652903268   -1.57659981148910
C         0.89063176477452   -0.96328091673458   -1.90804388873539
C        -0.16228007364147   -1.79876515691015   -1.50165202534503
C         1.89540666478918    0.99743552799048   -1.08988878703097
C         1.87195665755722   -0.48030029454578   -0.92372184583486
C         0.35741318139648    2.53438049300802   -0.26639908289175
C         1.63085387795869    1.82123031663972    0.02068789745923
C        -1.65587628165177    1.36035102575410    0.01553759737095
C        -0.60685878791687    2.11798851872629    0.71596962779324
C        -2.04150960926546   -1.04890325828450   -0.31269437041551
C        -2.06625923132590    0.14218625554512    0.55094840774749
C        -0.12560266613107   -2.42877136590982   -0.24863474673908
C        -1.41145229336258   -2.10887165860667    0.42737349352311
C         1.84847876086683   -1.02135719302259    0.35912685763745
C         0.90127516189717   -2.12624458548524    0.66566804366359
C         1.49798877630997    1.25971102458241    1.29946837632198
C         0.09507525970989    1.53017025859783    1.78066694836033
C         1.75601416862301   -0.10496105201354    1.50662094547318
C        -1.50250431279954   -0.30788871120520    1.85149744537103
C        -1.15689360346490   -1.71842929329038    1.74301879088679
C         0.27464346008377   -1.85540152607049    1.95207258666806
C        -0.38542997853680    0.36027667626065    2.38787885999706
C         0.73919446530937   -0.61331833208405    2.38747132371097
28
 energy: -59.368405234524 gnorm: 0.000872410290 xtb: 6.3.3 (4ae9cef)
C         0.31300755131133    0.18898097878543   -2.54655388788085
C         0.95144709028422    1.36096717153307   -2.13814005690225
C        -0.07068737199386    2.21465000116080   -1.55604862762877
C        -1.12156622796403    0.24816296151321   -2.15794033512510
C        -1.29631536775094    1.43752333901250   -1.42522776929236
C        -1.43241280869556   -0.99041696714366   -1.57678145206987
C         0.89075252220482   -0.96331976205708   -1.90782217687415
C        -0.16250141106364   -1.79885516929533   -1.50176929100792
C         1.89573205299833    0.99713877063704   -1.08974493299449
C         1.87200924360861   -0.48032686263018   -0.92384844573012
C         0.35757359274117    2.53429140509352   -0.26671514950221
C         1.63086386593150    1.82109580750551    0.02064247587244
C        -1.65591731924779    1.36049577527872    0.01553112922479
C        -0.60702873140255    2.11780931499071    0.71597092856408
C        -2.04151020009171   -1.04864759204361   -0.31267836884485
C        -2.06637399782030    0.14210604828435    0.55095381087377
C        -0.12549496043388   -2.42867621815795   -0.24860991053499
C        -1.41118243376400   -2.10892860692994    0.42762457746197
C         1.84857171521388   -1.02140921844593    0.35923400444015
C         0.90167212857340   -2.12623832116231    0.66541962524063
C         1.49791879316086    1.25990535705537    1.29963260160284
C         0.09529380544824    1.53023890324178    1.78079454628429
C         1.75606654642797   -0.10499659139066    1.50638307648235
C        -1.50280373693134   -0.30756021781682    1.85139252940391
C        -1.15710379881633   -1.71895362125155    1.74342242990381
C         0.27463004483876   -1.85580588353598    1.95262487259031
C        -0.38551853646464    0.36026882003330    2.38776931852813
C         0.73887794969747   -0.61349962226431    2.38748447791447
28
 energy: -59.368405988605 gnorm: 0.000368020792 xtb: 6.3.3 (4ae9cef)
C         0.31300492592194    0.18917134260232   -2.54680412888219
C         0.95155334869664    1.36112249275731   -2.13843331274612
C        -0.07068264323547    2.21494397337262   -1.55621939206788
C        -1.12167335261051    0.24823431568723   -2.15797424157028
C        -1.29655351502114    1.43760474329699   -1.42513014550380
C        -1.43238652070598   -0.99036504981220   -1.57681765190811
C         0.89099218735034   -0.96338414635748   -1.90776302100286
C        -0.16251710600008   -1.79888606820616   -1.50171248210007
C         1.89595037662769    0.99698492315264   -1.08976307026805
C         1.87231498274618   -0.48041479007086   -0.92403320153207
C         0.35767778765324    2.53453306778335   -0.26690111672345
C         1.63098995845005    1.82110059772753    0.02059614510040
C        -1.65618976187253    1.36075472206467    0.01553312091700
C        -0.60728150824773    2.11781354546398    0.71597133061487
C        -2.04168656583668   -1.04847118580534   -0.31261810968850
C        -2.06673170946084    0.14210179939019    0.55103437651549
C        -0.12540001533865   -2.42876107050920   -0.24859859693576
C        -1.41121831305626   -2.10918493095891    0.42780113278027
C         1.84889222648974   -1.02158418433157    0.35932535275643
C         0.90193338185115   -2.12627863398935    0.66536883233732
C         1.49790481218780    1.25993902113874    1.29957953633939
C         0.09528922197059    1.53017769143043    1.78081906974310
C         1.75625798228728   -0.10510987633517    1.50626165144218
C        -1.50304386489741   -0.30745120846784    1.85137242929361
C        -1.15725961443905   -1.71919341907272    1.74362432579313
C         0.27467587094220   -1.85601512112771    1.95288949502820
C        -0.38563211412386    0.36028153952683    2.38783636151556
C         0.73881954167137   -0.61366409035032    2.38775531075218
